<event>
 7    1  0.3565607E-009  0.9376370E+02  0.7818608E-02  0.1293985E+00
          1   -1    0    0  501    0  0.00000000000E+00  0.00000000000E+00  0.65627107491E+02  0.65627107685E+02  0.50400000000E-02 0. -1.
         -1   -1    0    0    0  501 -0.00000000000E+00 -0.00000000000E+00 -0.33490850974E+02  0.33490851353E+02  0.50400000000E-02 0.  1.
         23    2    1    2    0    0  0.17763568394E-14 -0.17763568394E-14  0.32136256518E+02  0.99117959038E+02  0.93763696711E+02 0.  0.
    9000005    2    3    3    0    0  0.13712464038E+02 -0.99630610265E+01  0.61481906607E+02  0.65229001630E+02  0.13693193876E+02 0.  0.
         22    1    3    3    0    0 -0.13712464038E+02  0.99630610265E+01 -0.29345650090E+02  0.33888957408E+02  0.00000000000E+00 0.  1.
         22    1    4    4    0    0  0.63349940197E+01 -0.10436681237E+02  0.22960395104E+02  0.26004542061E+02  0.00000000000E+00 0. -1.
         22    1    4    4    0    0  0.73774700180E+01  0.47362021016E+00  0.38521511503E+02  0.39224459569E+02  0.00000000000E+00 0. -1.
<mgrwt>
<rscale>  0 0.93763697E+02</rscale>
<asrwt>0</asrwt>
<pdfrwt beam="1">  1        1 0.10096478E-01 0.93763697E+02</pdfrwt>
<pdfrwt beam="2">  1       -1 0.51524387E-02 0.93763697E+02</pdfrwt>
<totfact> 0.90402709E+04</totfact>
</mgrwt>
</event>
<event>
 7    1  0.3565607E-009  0.9943571E+02  0.7818608E-02  0.1281487E+00
         -1   -1    0    0    0  501 -0.00000000000E+00  0.00000000000E+00  0.27098381998E+03  0.27098382003E+03  0.50400000000E-02 0.  1.
          1   -1    0    0  501    0  0.00000000000E+00 -0.00000000000E+00 -0.91218169918E+01  0.91218183842E+01  0.50400000000E-02 0. -1.
         23    2    1    2    0    0 -0.35527136788E-14 -0.35527136788E-14  0.26186200299E+03  0.28010563841E+03  0.99435708178E+02 0.  0.
    9000005    2    3    3    0    0 -0.28572582645E+02 -0.23222748291E+02  0.22417777347E+03  0.22741987495E+03  0.10413303391E+02 0.  0.
         22    1    3    3    0    0  0.28572582645E+02  0.23222748291E+02  0.37684229524E+02  0.52685763466E+02  0.00000000000E+00 0. -1.
         22    1    4    4    0    0 -0.57137500722E+01 -0.31275540603E+01  0.67479208247E+02  0.67792861571E+02  0.00000000000E+00 0.  1.
         22    1    4    4    0    0 -0.22858832573E+02 -0.20095194231E+02  0.15669856522E+03  0.15962701338E+03  0.00000000000E+00 0.  1.
<mgrwt>
<rscale>  0 0.99435708E+02</rscale>
<asrwt>0</asrwt>
<pdfrwt beam="2">  1        1 0.14033565E-02 0.99435708E+02</pdfrwt>
<pdfrwt beam="1">  1       -1 0.41689820E-01 0.99435708E+02</pdfrwt>
<totfact> 0.50157996E+04</totfact>
</mgrwt>
</event>
<event>
 7    1  0.3565607E-009  0.9808267E+02  0.7818608E-02  0.1284380E+00
         -1   -1    0    0    0  501 -0.00000000000E+00  0.00000000000E+00  0.75183472762E+01  0.75183489655E+01  0.50400000000E-02 0.  1.
          1   -1    0    0  501    0  0.00000000000E+00 -0.00000000000E+00 -0.31989106568E+03  0.31989106572E+03  0.50400000000E-02 0. -1.
         23    2    1    2    0    0  0.00000000000E+00  0.71054273576E-14 -0.31237271841E+03  0.32740941469E+03  0.98082667284E+02 0.  0.
    9000005    2    3    3    0    0 -0.19632820471E+02 -0.39141566528E+02 -0.22568859458E+03  0.23029274674E+03  0.13486942103E+02 0.  0.
         22    1    3    3    0    0  0.19632820471E+02  0.39141566528E+02 -0.86684123828E+02  0.97116667951E+02  0.00000000000E+00 0.  1.
         22    1    4    4    0    0 -0.29901950858E+01 -0.19848995749E+02 -0.11194094786E+03  0.11372642484E+03  0.00000000000E+00 0.  1.
         22    1    4    4    0    0 -0.16642625385E+02 -0.19292570779E+02 -0.11374764672E+03  0.11656632190E+03  0.00000000000E+00 0.  1.
<mgrwt>
<rscale>  0 0.98082667E+02</rscale>
<asrwt>0</asrwt>
<pdfrwt beam="2">  1        1 0.49214000E-01 0.98082667E+02</pdfrwt>
<pdfrwt beam="1">  1       -1 0.11566692E-02 0.98082667E+02</pdfrwt>
<totfact> 0.10668723E+05</totfact>
</mgrwt>
</event>
<event>
 7    1  0.3565607E-009  0.9093867E+02  0.7818608E-02  0.1300594E+00
          1   -1    0    0  501    0  0.00000000000E+00  0.00000000000E+00  0.18721565083E+03  0.18721565090E+03  0.50400000000E-02 0. -1.
         -1   -1    0    0    0  501 -0.00000000000E+00 -0.00000000000E+00 -0.11043201302E+02  0.11043202452E+02  0.50400000000E-02 0.  1.
         23    2    1    2    0    0  0.00000000000E+00 -0.35527136788E-14  0.17617244953E+03  0.19825885335E+03  0.90938665918E+02 0.  0.
    9000005    2    3    3    0    0  0.24792821598E+02 -0.29725968661E+02  0.13705299816E+03  0.14322569343E+03  0.15223591496E+02 0.  0.
         22    1    3    3    0    0 -0.24792821598E+02  0.29725968661E+02  0.39119451373E+02  0.55033159926E+02  0.00000000000E+00 0. -1.
         22    1    4    4    0    0  0.11045154979E+02 -0.80603430697E+01  0.27550131786E+02  0.30756695862E+02  0.00000000000E+00 0.  1.
         22    1    4    4    0    0  0.13747666619E+02 -0.21665625591E+02  0.10950286637E+03  0.11246899757E+03  0.00000000000E+00 0.  1.
<mgrwt>
<rscale>  0 0.90938666E+02</rscale>
<asrwt>0</asrwt>
<pdfrwt beam="1">  1        1 0.28802408E-01 0.90938666E+02</pdfrwt>
<pdfrwt beam="2">  1       -1 0.16989542E-02 0.90938666E+02</pdfrwt>
<totfact> 0.11772837E+05</totfact>
</mgrwt>
</event>
<event>
 7    1  0.3565607E-009  0.8809830E+02  0.7818608E-02  0.1307523E+00
          1   -1    0    0  501    0  0.00000000000E+00  0.00000000000E+00  0.74623667262E+02  0.74623667432E+02  0.50400000000E-02 0. -1.
         -1   -1    0    0    0  501 -0.00000000000E+00 -0.00000000000E+00 -0.26001502153E+02  0.26001502642E+02  0.50400000000E-02 0.  1.
         23    2    1    2    0    0  0.35527136788E-14  0.00000000000E+00  0.48622165109E+02  0.10062517007E+03  0.88098296877E+02 0.  0.
    9000005    2    3    3    0    0 -0.26540585671E+02 -0.10348380490E+02  0.62337966115E+02  0.69008483597E+02  0.80409652719E+01 0.  0.
         22    1    3    3    0    0  0.26540585671E+02  0.10348380490E+02 -0.13715801006E+02  0.31616686477E+02  0.00000000000E+00 0.  1.
         22    1    4    4    0    0 -0.23622627065E+02 -0.11350980585E+02  0.52175712107E+02  0.58388168352E+02  0.00000000000E+00 0.  1.
         22    1    4    4    0    0 -0.29179586066E+01  0.10026000946E+01  0.10162254008E+02  0.10620315245E+02  0.00000000000E+00 0.  1.
<mgrwt>
<rscale>  0 0.88098297E+02</rscale>
<asrwt>0</asrwt>
<pdfrwt beam="1">  1        1 0.11480564E-01 0.88098297E+02</pdfrwt>
<pdfrwt beam="2">  1       -1 0.40002312E-02 0.88098297E+02</pdfrwt>
<totfact> 0.10949394E+05</totfact>
</mgrwt>
</event>
<event>
 7    1  0.3565607E-009  0.8778951E+02  0.7818608E-02  0.1308295E+00
         -1   -1    0    0    0  501 -0.00000000000E+00  0.00000000000E+00  0.27330830799E+01  0.27330877270E+01  0.50400000000E-02 0.  1.
          1   -1    0    0  501    0  0.00000000000E+00 -0.00000000000E+00 -0.70497223103E+03  0.70497223105E+03  0.50400000000E-02 0. -1.
         23    2    1    2    0    0  0.00000000000E+00  0.35527136788E-14 -0.70223914795E+03  0.70770531877E+03  0.87789505687E+02 0.  0.
    9000005    2    3    3    0    0 -0.25794701210E+02 -0.16365072485E+02 -0.60075634399E+03  0.60172446340E+03  0.15197460077E+02 0.  0.
         22    1    3    3    0    0  0.25794701210E+02  0.16365072485E+02 -0.10148280396E+03  0.10598085538E+03  0.00000000000E+00 0.  1.
         22    1    4    4    0    0 -0.15529494469E+01  0.94865811999E+00 -0.13712002871E+03  0.13713210375E+03  0.00000000000E+00 0. -1.
         22    1    4    4    0    0 -0.24241751764E+02 -0.17313730605E+02 -0.46363631528E+03  0.46459235965E+03  0.00000000000E+00 0. -1.
<mgrwt>
<rscale>  0 0.87789506E+02</rscale>
<asrwt>0</asrwt>
<pdfrwt beam="2">  1        1 0.10845712E+00 0.87789506E+02</pdfrwt>
<pdfrwt beam="1">  1       -1 0.42047524E-03 0.87789506E+02</pdfrwt>
<totfact> 0.15710477E+05</totfact>
</mgrwt>
</event>
<event>
 7    1  0.3565607E-009  0.9231988E+02  0.7818608E-02  0.1297329E+00
          1   -1    0    0  501    0  0.00000000000E+00  0.00000000000E+00  0.80537803015E+02  0.80537803172E+02  0.50400000000E-02 0. -1.
         -1   -1    0    0    0  501 -0.00000000000E+00 -0.00000000000E+00 -0.26456396291E+02  0.26456396771E+02  0.50400000000E-02 0.  1.
         23    2    1    2    0    0  0.00000000000E+00 -0.71054273576E-14  0.54081406724E+02  0.10699419994E+03  0.92319880136E+02 0.  0.
    9000005    2    3    3    0    0 -0.46410598186E+01  0.40564917325E+02  0.48927238554E+01  0.43067847974E+02  0.12800344862E+02 0.  0.
         22    1    3    3    0    0  0.46410598186E+01 -0.40564917325E+02  0.49188682868E+02  0.63926351969E+02  0.00000000000E+00 0. -1.
         22    1    4    4    0    0 -0.85400996981E+01  0.32330528568E+02  0.56981656394E+01  0.33921460346E+02  0.00000000000E+00 0. -1.
         22    1    4    4    0    0  0.38990398795E+01  0.82343887566E+01 -0.80544178391E+00  0.91463876281E+01  0.00000000000E+00 0. -1.
<mgrwt>
<rscale>  0 0.92319880E+02</rscale>
<asrwt>0</asrwt>
<pdfrwt beam="1">  1        1 0.12390431E-01 0.92319880E+02</pdfrwt>
<pdfrwt beam="2">  1       -1 0.40702149E-02 0.92319880E+02</pdfrwt>
<totfact> 0.97455128E+04</totfact>
</mgrwt>
</event>
<event>
 7    1  0.3565607E-009  0.9357446E+02  0.7818608E-02  0.1294419E+00
         -1   -1    0    0    0  501 -0.00000000000E+00  0.00000000000E+00  0.25677595852E+01  0.25677645314E+01  0.50400000000E-02 0.  1.
          1   -1    0    0  501    0  0.00000000000E+00 -0.00000000000E+00 -0.85251087542E+03  0.85251087543E+03  0.50400000000E-02 0. -1.
         23    2    1    2    0    0  0.17763568394E-14  0.00000000000E+00 -0.84994311583E+03  0.85507863997E+03  0.93574464314E+02 0.  0.
    9000005    2    3    3    0    0  0.10774315175E+02 -0.38926198861E+02 -0.63962263385E+03  0.64091505770E+03  0.48644252146E+01 0.  0.
         22    1    3    3    0    0 -0.10774315175E+02  0.38926198861E+02 -0.21032048198E+03  0.21416358226E+03  0.00000000000E+00 0.  1.
         22    1    4    4    0    0  0.20473995553E+01 -0.75377647260E+01 -0.15688949244E+03  0.15708380751E+03  0.00000000000E+00 0. -1.
         22    1    4    4    0    0  0.87269156196E+01 -0.31388434135E+02 -0.48273314141E+03  0.48383125020E+03  0.00000000000E+00 0. -1.
<mgrwt>
<rscale>  0 0.93574464E+02</rscale>
<asrwt>0</asrwt>
<pdfrwt beam="2">  1        1 0.13115529E+00 0.93574464E+02</pdfrwt>
<pdfrwt beam="1">  1       -1 0.39504100E-03 0.93574464E+02</pdfrwt>
<totfact> 0.13100762E+05</totfact>
</mgrwt>
</event>
<event>
 7    1  0.3565607E-009  0.9209663E+02  0.7818608E-02  0.1297852E+00
          1   -1    0    0  501    0  0.00000000000E+00  0.00000000000E+00  0.89264230261E+02  0.89264230403E+02  0.50400000000E-02 0. -1.
         -1   -1    0    0    0  501 -0.00000000000E+00 -0.00000000000E+00 -0.23754726681E+02  0.23754727215E+02  0.50400000000E-02 0.  1.
         23    2    1    2    0    0  0.00000000000E+00  0.00000000000E+00  0.65509503581E+02  0.11301895762E+03  0.92096632522E+02 0.  0.
    9000005    2    3    3    0    0  0.29978492547E+02  0.84717521886E+01 -0.70464294816E+01  0.34057929110E+02  0.11824117992E+02 0.  0.
         22    1    3    3    0    0 -0.29978492547E+02 -0.84717521886E+01  0.72555933062E+02  0.78961028508E+02  0.00000000000E+00 0. -1.
         22    1    4    4    0    0  0.10438395083E+02  0.68194201764E+01 -0.72963577207E+01  0.14446501979E+02  0.00000000000E+00 0. -1.
         22    1    4    4    0    0  0.19540097464E+02  0.16523320123E+01  0.24992823909E+00  0.19611427131E+02  0.00000000000E+00 0. -1.
<mgrwt>
<rscale>  0 0.92096633E+02</rscale>
<asrwt>0</asrwt>
<pdfrwt beam="1">  1        1 0.13732959E-01 0.92096633E+02</pdfrwt>
<pdfrwt beam="2">  1       -1 0.36545733E-02 0.92096633E+02</pdfrwt>
<totfact> 0.99742993E+04</totfact>
</mgrwt>
</event>
<event>
 7    1  0.3565607E-009  0.9643906E+02  0.7818608E-02  0.1287967E+00
          1   -1    0    0  501    0  0.00000000000E+00  0.00000000000E+00  0.65441715909E+02  0.65441716103E+02  0.50400000000E-02 0. -1.
         -1   -1    0    0    0  501 -0.00000000000E+00 -0.00000000000E+00 -0.35529677688E+02  0.35529678046E+02  0.50400000000E-02 0.  1.
         23    2    1    2    0    0  0.00000000000E+00 -0.71054273576E-14  0.29912038221E+02  0.10097139415E+03  0.96439060582E+02 0.  0.
    9000005    2    3    3    0    0  0.16224467494E+02 -0.34017252643E+02 -0.14515179828E+02  0.42711763817E+02  0.13899550353E+02 0.  0.
         22    1    3    3    0    0 -0.16224467494E+02  0.34017252643E+02  0.44427218050E+02  0.58259630332E+02  0.00000000000E+00 0. -1.
         22    1    4    4    0    0  0.52661559373E+01 -0.97372273703E+00 -0.18297743996E+01  0.56593823583E+01  0.00000000000E+00 0.  1.
         22    1    4    4    0    0  0.10958311557E+02 -0.33043529906E+02 -0.12685405429E+02  0.37052381458E+02  0.00000000000E+00 0.  1.
<mgrwt>
<rscale>  0 0.96439061E+02</rscale>
<asrwt>0</asrwt>
<pdfrwt beam="1">  1        1 0.10067956E-01 0.96439061E+02</pdfrwt>
<pdfrwt beam="2">  1       -1 0.54661044E-02 0.96439061E+02</pdfrwt>
<totfact> 0.83555868E+04</totfact>
</mgrwt>
</event>
<event>
 7    1  0.3565607E-009  0.9347722E+02  0.7818608E-02  0.1294643E+00
         -1   -1    0    0    0  501 -0.00000000000E+00  0.00000000000E+00  0.62671534953E+03  0.62671534955E+03  0.50400000000E-02 0.  1.
          1   -1    0    0  501    0  0.00000000000E+00 -0.00000000000E+00 -0.34856280519E+01  0.34856316956E+01  0.50400000000E-02 0. -1.
         23    2    1    2    0    0  0.00000000000E+00 -0.17763568394E-14  0.62322972148E+03  0.63020098125E+03  0.93477221983E+02 0.  0.
    9000005    2    3    3    0    0 -0.29233601997E+02 -0.77721407809E+01  0.54907234132E+03  0.55011148949E+03  0.15073327666E+02 0.  0.
         22    1    3    3    0    0  0.29233601997E+02  0.77721407809E+01  0.74157380160E+02  0.80089491759E+02  0.00000000000E+00 0. -1.
         22    1    4    4    0    0 -0.12775495942E+02 -0.10851976629E+02  0.31066970375E+03  0.31112158961E+03  0.00000000000E+00 0.  1.
         22    1    4    4    0    0 -0.16458106054E+02  0.30798358482E+01  0.23840263757E+03  0.23898989987E+03  0.00000000000E+00 0.  1.
<mgrwt>
<rscale>  0 0.93477222E+02</rscale>
<asrwt>0</asrwt>
<pdfrwt beam="2">  1        1 0.53625141E-03 0.93477222E+02</pdfrwt>
<pdfrwt beam="1">  1       -1 0.96417628E-01 0.93477222E+02</pdfrwt>
<totfact> 0.37729670E+04</totfact>
</mgrwt>
</event>
<event>
 7    1  0.3565607E-009  0.9304183E+02  0.7818608E-02  0.1295648E+00
         -1   -1    0    0    0  501 -0.00000000000E+00  0.00000000000E+00  0.48749157738E+02  0.48749157998E+02  0.50400000000E-02 0.  1.
          1   -1    0    0  501    0  0.00000000000E+00 -0.00000000000E+00 -0.44394517458E+02  0.44394517744E+02  0.50400000000E-02 0. -1.
         23    2    1    2    0    0  0.00000000000E+00  0.00000000000E+00  0.43546402798E+01  0.93143675742E+02  0.93041826287E+02 0.  0.
    9000005    2    3    3    0    0 -0.23086316881E+02  0.24043252147E+02 -0.29076148048E+02  0.45934845962E+02  0.12390790424E+02 0.  0.
         22    1    3    3    0    0  0.23086316881E+02 -0.24043252147E+02  0.33430788328E+02  0.47208829780E+02  0.00000000000E+00 0.  1.
         22    1    4    4    0    0 -0.15469088007E+02  0.15501056766E+02 -0.10916112993E+02  0.24469102303E+02  0.00000000000E+00 0. -1.
         22    1    4    4    0    0 -0.76172288742E+01  0.85421953804E+01 -0.18160035055E+02  0.21465743659E+02  0.00000000000E+00 0. -1.
<mgrwt>
<rscale>  0 0.93041826E+02</rscale>
<asrwt>0</asrwt>
<pdfrwt beam="2">  1        1 0.68299258E-02 0.93041826E+02</pdfrwt>
<pdfrwt beam="1">  1       -1 0.74998705E-02 0.93041826E+02</pdfrwt>
<totfact> 0.86995857E+04</totfact>
</mgrwt>
</event>
<event>
 7    1  0.3565607E-009  0.9326173E+02  0.7818608E-02  0.1295140E+00
         -1   -1    0    0    0  501 -0.00000000000E+00  0.00000000000E+00  0.10527052390E+02  0.10527053597E+02  0.50400000000E-02 0.  1.
          1   -1    0    0  501    0  0.00000000000E+00 -0.00000000000E+00 -0.20655708356E+03  0.20655708362E+03  0.50400000000E-02 0. -1.
         23    2    1    2    0    0  0.00000000000E+00  0.00000000000E+00 -0.19603003117E+03  0.21708413722E+03  0.93261725865E+02 0.  0.
    9000005    2    3    3    0    0  0.22383820692E+02 -0.28836721456E+02 -0.37526443011E+02  0.54431195676E+02  0.14897288495E+02 0.  0.
         22    1    3    3    0    0 -0.22383820692E+02  0.28836721456E+02 -0.15850358816E+03  0.16265294154E+03  0.00000000000E+00 0. -1.
         22    1    4    4    0    0  0.10268282219E+02 -0.20221814448E+02 -0.30446813698E+02  0.37965350830E+02  0.00000000000E+00 0.  1.
         22    1    4    4    0    0  0.12115538474E+02 -0.86149070084E+01 -0.70796293128E+01  0.16465844845E+02  0.00000000000E+00 0.  1.
<mgrwt>
<rscale>  0 0.93261726E+02</rscale>
<asrwt>0</asrwt>
<pdfrwt beam="2">  1        1 0.31778010E-01 0.93261726E+02</pdfrwt>
<pdfrwt beam="1">  1       -1 0.16195468E-02 0.93261726E+02</pdfrwt>
<totfact> 0.11213091E+05</totfact>
</mgrwt>
</event>
<event>
 7    1  0.3565607E-009  0.9095822E+02  0.7818608E-02  0.1300548E+00
         -1   -1    0    0    0  501 -0.00000000000E+00  0.00000000000E+00  0.10672375866E+02  0.10672377056E+02  0.50400000000E-02 0.  1.
          1   -1    0    0  501    0  0.00000000000E+00 -0.00000000000E+00 -0.19380400327E+03  0.19380400334E+03  0.50400000000E-02 0. -1.
         23    2    1    2    0    0 -0.35527136788E-14 -0.71054273576E-14 -0.18313162741E+03  0.20447638040E+03  0.90958216686E+02 0.  0.
    9000005    2    3    3    0    0 -0.23313657612E+02 -0.37483764659E+02 -0.10351548378E+03  0.11344182888E+03  0.14319005277E+02 0.  0.
         22    1    3    3    0    0  0.23313657612E+02  0.37483764659E+02 -0.79616143624E+02  0.91034551517E+02  0.00000000000E+00 0.  1.
         22    1    4    4    0    0 -0.12466254297E+02 -0.31321598949E+02 -0.80235197617E+02  0.87029517944E+02  0.00000000000E+00 0. -1.
         22    1    4    4    0    0 -0.10847403315E+02 -0.61621657099E+01 -0.23280286167E+02  0.26412310935E+02  0.00000000000E+00 0. -1.
<mgrwt>
<rscale>  0 0.90958217E+02</rscale>
<asrwt>0</asrwt>
<pdfrwt beam="2">  1        1 0.29815998E-01 0.90958217E+02</pdfrwt>
<pdfrwt beam="1">  1       -1 0.16419042E-02 0.90958217E+02</pdfrwt>
<totfact> 0.11844745E+05</totfact>
</mgrwt>
</event>
<event>
 6    1  0.3565607E-009  0.2087048E+03  0.7818608E-02  0.1142596E+00
         -1   -1    0    0    0  501 -0.00000000000E+00  0.00000000000E+00  0.10566988094E+02  0.10566989296E+02  0.50400000000E-02 0. -1.
          1   -1    0    0  501    0  0.00000000000E+00 -0.00000000000E+00 -0.10305133241E+04  0.10305133241E+04  0.50400000000E-02 0.  1.
    9000005    2    1    2    0    0 -0.31775603749E+02 -0.66052860842E+02 -0.88031763978E+03  0.88338173311E+03  0.56098179179E+01 0.  0.
         22    1    1    2    0    0  0.31775603749E+02  0.66052860842E+02 -0.13962869620E+03  0.15769858028E+03  0.00000000000E+00 0. -1.
         22    1    3    3    0    0 -0.31404063330E+02 -0.65459083024E+02 -0.86249607178E+03  0.86554640579E+03  0.00000000000E+00 0. -1.
         22    1    3    3    0    0 -0.37154041958E+00 -0.59377781803E+00 -0.17821568008E+02  0.17835327321E+02  0.00000000000E+00 0. -1.
<mgrwt>
<rscale>  0 0.20870479E+03</rscale>
<asrwt>0</asrwt>
<pdfrwt beam="2">  1        1 0.15854043E+00 0.20870479E+03</pdfrwt>
<pdfrwt beam="1">  1       -1 0.16256914E-02 0.20870479E+03</pdfrwt>
<totfact> 0.13881741E+04</totfact>
</mgrwt>
</event>
<event>
 7    1  0.3565607E-009  0.9203401E+02  0.7818608E-02  0.1297999E+00
         -1   -1    0    0    0  501 -0.00000000000E+00  0.00000000000E+00  0.15004584509E+03  0.15004584518E+03  0.50400000000E-02 0.  1.
          1   -1    0    0  501    0  0.00000000000E+00 -0.00000000000E+00 -0.14112784365E+02  0.14112785265E+02  0.50400000000E-02 0. -1.
         23    2    1    2    0    0  0.00000000000E+00  0.00000000000E+00  0.13593306073E+03  0.16415863044E+03  0.92034009747E+02 0.  0.
    9000005    2    3    3    0    0 -0.60971103972E+01  0.32380163332E+02  0.12460781372E+03  0.12931740554E+03  0.10499257328E+02 0.  0.
         22    1    3    3    0    0  0.60971103972E+01 -0.32380163332E+02  0.11325247008E+02  0.34841224898E+02  0.00000000000E+00 0. -1.
         22    1    4    4    0    0  0.83028291838E+00  0.22490570562E+02  0.80584172287E+02  0.83667938645E+02  0.00000000000E+00 0. -1.
         22    1    4    4    0    0 -0.69273933156E+01  0.98895927693E+01  0.44023641432E+02  0.45649466900E+02  0.00000000000E+00 0. -1.
<mgrwt>
<rscale>  0 0.92034010E+02</rscale>
<asrwt>0</asrwt>
<pdfrwt beam="2">  1        1 0.21711974E-02 0.92034010E+02</pdfrwt>
<pdfrwt beam="1">  1       -1 0.23083979E-01 0.92034010E+02</pdfrwt>
<totfact> 0.72986711E+04</totfact>
</mgrwt>
</event>
<event>
 7    1  0.3565607E-009  0.9039884E+02  0.7818608E-02  0.1301889E+00
          1   -1    0    0  501    0  0.00000000000E+00  0.00000000000E+00  0.30134574432E+02  0.30134574854E+02  0.50400000000E-02 0. -1.
         -1   -1    0    0    0  501 -0.00000000000E+00 -0.00000000000E+00 -0.67795459280E+02  0.67795459468E+02  0.50400000000E-02 0.  1.
         23    2    1    2    0    0  0.35527136788E-14  0.00000000000E+00 -0.37660884848E+02  0.97930034321E+02  0.90398835029E+02 0.  0.
    9000005    2    3    3    0    0 -0.20676618681E+02 -0.39240027174E+02 -0.19730056512E+02  0.50088453060E+02  0.12340004346E+02 0.  0.
         22    1    3    3    0    0  0.20676618681E+02  0.39240027174E+02 -0.17930828336E+02  0.47841581261E+02  0.00000000000E+00 0.  1.
         22    1    4    4    0    0 -0.40512684719E+01 -0.14169337849E+02 -0.12062663043E+02  0.19044441473E+02  0.00000000000E+00 0. -1.
         22    1    4    4    0    0 -0.16625350209E+02 -0.25070689325E+02 -0.76673934681E+01  0.31044011587E+02  0.00000000000E+00 0. -1.
<mgrwt>
<rscale>  0 0.90398835E+02</rscale>
<asrwt>0</asrwt>
<pdfrwt beam="1">  1        1 0.46360884E-02 0.90398835E+02</pdfrwt>
<pdfrwt beam="2">  1       -1 0.10430071E-01 0.90398835E+02</pdfrwt>
<totfact> 0.88904074E+04</totfact>
</mgrwt>
</event>
<event>
 7    1  0.3565607E-009  0.9167686E+02  0.7818608E-02  0.1298841E+00
          1   -1    0    0  501    0  0.00000000000E+00  0.00000000000E+00  0.33612081671E+03  0.33612081675E+03  0.50400000000E-02 0. -1.
         -1   -1    0    0    0  501 -0.00000000000E+00 -0.00000000000E+00 -0.62512086186E+01  0.62512106503E+01  0.50400000000E-02 0.  1.
         23    2    1    2    0    0  0.00000000000E+00  0.71054273576E-14  0.32986960810E+03  0.34237202740E+03  0.91676860780E+02 0.  0.
    9000005    2    3    3    0    0  0.27434878774E+02 -0.32472017550E+02  0.22848445879E+03  0.23243544115E+03  0.37392375097E+01 0.  0.
         22    1    3    3    0    0 -0.27434878774E+02  0.32472017550E+02  0.10138514931E+03  0.10993658626E+03  0.00000000000E+00 0.  1.
         22    1    4    4    0    0  0.96680866690E+01 -0.13148227925E+02  0.95607057465E+02  0.96989985228E+02  0.00000000000E+00 0.  1.
         22    1    4    4    0    0  0.17766792105E+02 -0.19323789625E+02  0.13287740132E+03  0.13544545592E+03  0.00000000000E+00 0.  1.
<mgrwt>
<rscale>  0 0.91676861E+02</rscale>
<asrwt>0</asrwt>
<pdfrwt beam="1">  1        1 0.51710901E-01 0.91676861E+02</pdfrwt>
<pdfrwt beam="2">  1       -1 0.96172444E-03 0.91676861E+02</pdfrwt>
<totfact> 0.12898088E+05</totfact>
</mgrwt>
</event>
<event>
 7    1  0.3565607E-009  0.8895778E+02  0.7818608E-02  0.1305395E+00
         -1   -1    0    0    0  501 -0.00000000000E+00  0.00000000000E+00  0.16831825541E+02  0.16831826296E+02  0.50400000000E-02 0.  1.
          1   -1    0    0  501    0  0.00000000000E+00 -0.00000000000E+00 -0.11753755498E+03  0.11753755509E+03  0.50400000000E-02 0. -1.
         23    2    1    2    0    0  0.00000000000E+00  0.00000000000E+00 -0.10070572944E+03  0.13436938139E+03  0.88957780502E+02 0.  0.
    9000005    2    3    3    0    0 -0.42627157124E+02  0.91900937787E+01 -0.62743767590E+02  0.76553787507E+02  0.47084670589E+01 0.  0.
         22    1    3    3    0    0  0.42627157124E+02 -0.91900937787E+01 -0.37961961852E+02  0.57815593881E+02  0.00000000000E+00 0.  1.
         22    1    4    4    0    0 -0.16805080714E+02  0.48772705881E+01 -0.21776176530E+02  0.27935646949E+02  0.00000000000E+00 0.  1.
         22    1    4    4    0    0 -0.25822076410E+02  0.43128231905E+01 -0.40967591060E+02  0.48618140558E+02  0.00000000000E+00 0.  1.
<mgrwt>
<rscale>  0 0.88957781E+02</rscale>
<asrwt>0</asrwt>
<pdfrwt beam="2">  1        1 0.18082700E-01 0.88957781E+02</pdfrwt>
<pdfrwt beam="1">  1       -1 0.25895118E-02 0.88957781E+02</pdfrwt>
<totfact> 0.11475765E+05</totfact>
</mgrwt>
</event>
<event>
 7    1  0.3565607E-009  0.9375108E+02  0.7818608E-02  0.1294014E+00
         -1   -1    0    0    0  501 -0.00000000000E+00  0.00000000000E+00  0.11723879280E+03  0.11723879291E+03  0.50400000000E-02 0.  1.
          1   -1    0    0  501    0  0.00000000000E+00 -0.00000000000E+00 -0.18742230039E+02  0.18742230716E+02  0.50400000000E-02 0. -1.
         23    2    1    2    0    0  0.00000000000E+00  0.00000000000E+00  0.98496562762E+02  0.13598102363E+03  0.93751084848E+02 0.  0.
    9000005    2    3    3    0    0  0.11115231625E+02  0.17408686402E+02  0.10983545809E+03  0.11241873843E+03  0.12146364061E+02 0.  0.
         22    1    3    3    0    0 -0.11115231625E+02 -0.17408686402E+02 -0.11338895329E+02  0.23562285195E+02  0.00000000000E+00 0. -1.
         22    1    4    4    0    0 -0.22934289428E+01  0.84525555034E+00  0.75101172165E+01  0.78978562830E+01  0.00000000000E+00 0.  1.
         22    1    4    4    0    0  0.13408660567E+02  0.16563430852E+02  0.10232534087E+03  0.10452088215E+03  0.00000000000E+00 0.  1.
<mgrwt>
<rscale>  0 0.93751085E+02</rscale>
<asrwt>0</asrwt>
<pdfrwt beam="2">  1        1 0.28834200E-02 0.93751085E+02</pdfrwt>
<pdfrwt beam="1">  1       -1 0.18036738E-01 0.93751085E+02</pdfrwt>
<totfact> 0.73418224E+04</totfact>
</mgrwt>
</event>
<event>
 7    1  0.3565607E-009  0.8940941E+02  0.7818608E-02  0.1304288E+00
          1   -1    0    0  501    0  0.00000000000E+00  0.00000000000E+00  0.20977582289E+02  0.20977582895E+02  0.50400000000E-02 0. -1.
         -1   -1    0    0    0  501 -0.00000000000E+00 -0.00000000000E+00 -0.95268872698E+02  0.95268872831E+02  0.50400000000E-02 0.  1.
         23    2    1    2    0    0  0.00000000000E+00  0.35527136788E-14 -0.74291290409E+02  0.11624645573E+03  0.89409410233E+02 0.  0.
    9000005    2    3    3    0    0 -0.10960894427E+02  0.17406419242E+02  0.13709616063E+02  0.25873427796E+02  0.76391135501E+01 0.  0.
         22    1    3    3    0    0  0.10960894427E+02 -0.17406419242E+02 -0.88000906472E+02  0.90373027930E+02  0.00000000000E+00 0.  1.
         22    1    4    4    0    0 -0.11568651345E+02  0.15095418433E+02  0.10071415486E+02  0.21520658947E+02  0.00000000000E+00 0. -1.
         22    1    4    4    0    0  0.60775691858E+00  0.23110008092E+01  0.36382005769E+01  0.43527688487E+01  0.00000000000E+00 0. -1.
<mgrwt>
<rscale>  0 0.89409410E+02</rscale>
<asrwt>0</asrwt>
<pdfrwt beam="1">  1        1 0.32273205E-02 0.89409410E+02</pdfrwt>
<pdfrwt beam="2">  1       -1 0.14656749E-01 0.89409410E+02</pdfrwt>
<totfact> 0.86333396E+04</totfact>
</mgrwt>
</event>
<event>
 7    1  0.3565607E-009  0.9020670E+02  0.7818608E-02  0.1302352E+00
          1   -1    0    0  501    0  0.00000000000E+00  0.00000000000E+00  0.41694156983E+01  0.41694187445E+01  0.50400000000E-02 0. -1.
         -1   -1    0    0    0  501 -0.00000000000E+00 -0.00000000000E+00 -0.48791280362E+03  0.48791280365E+03  0.50400000000E-02 0.  1.
         23    2    1    2    0    0  0.00000000000E+00  0.35527136788E-14 -0.48374338792E+03  0.49208222239E+03  0.90206697284E+02 0.  0.
    9000005    2    3    3    0    0 -0.30224339769E+02  0.19560706995E+02 -0.38682314147E+03  0.38869138070E+03  0.12357778257E+02 0.  0.
         22    1    3    3    0    0  0.30224339769E+02 -0.19560706995E+02 -0.96920246453E+02  0.10339084169E+03  0.00000000000E+00 0. -1.
         22    1    4    4    0    0 -0.61515975495E+01  0.41598330054E+01 -0.14418533128E+03  0.14437643893E+03  0.00000000000E+00 0. -1.
         22    1    4    4    0    0 -0.24072742220E+02  0.15400873989E+02 -0.24263781020E+03  0.24431494177E+03  0.00000000000E+00 0. -1.
<mgrwt>
<rscale>  0 0.90206697E+02</rscale>
<asrwt>0</asrwt>
<pdfrwt beam="1">  1        1 0.64144919E-03 0.90206697E+02</pdfrwt>
<pdfrwt beam="2">  1       -1 0.75063463E-01 0.90206697E+02</pdfrwt>
<totfact> 0.49107768E+04</totfact>
</mgrwt>
</event>
<event>
 7    1  0.3565607E-009  0.8962240E+02  0.7818608E-02  0.1303769E+00
          1   -1    0    0  501    0  0.00000000000E+00  0.00000000000E+00  0.30650579151E+02  0.30650579565E+02  0.50400000000E-02 0. -1.
         -1   -1    0    0    0  501 -0.00000000000E+00 -0.00000000000E+00 -0.65514047329E+02  0.65514047523E+02  0.50400000000E-02 0.  1.
         23    2    1    2    0    0  0.00000000000E+00  0.00000000000E+00 -0.34863468178E+02  0.96164627088E+02  0.89622397254E+02 0.  0.
    9000005    2    3    3    0    0 -0.11899150973E+02  0.36455299477E+02 -0.41440837483E+02  0.57256524580E+02  0.95072573247E+01 0.  0.
         22    1    3    3    0    0  0.11899150973E+02 -0.36455299477E+02  0.65773693051E+01  0.38908102508E+02  0.00000000000E+00 0. -1.
         22    1    4    4    0    0 -0.29618425410E+01  0.18042833731E+02 -0.25169504172E+02  0.31109810359E+02  0.00000000000E+00 0.  1.
         22    1    4    4    0    0 -0.89373084322E+01  0.18412465745E+02 -0.16271333311E+02  0.26146714221E+02  0.00000000000E+00 0.  1.
<mgrwt>
<rscale>  0 0.89622397E+02</rscale>
<asrwt>0</asrwt>
<pdfrwt beam="1">  1        1 0.47154738E-02 0.89622397E+02</pdfrwt>
<pdfrwt beam="2">  1       -1 0.10079084E-01 0.89622397E+02</pdfrwt>
<totfact> 0.91369313E+04</totfact>
</mgrwt>
</event>
<event>
 7    1  0.3565607E-009  0.9239736E+02  0.7818608E-02  0.1297148E+00
          1   -1    0    0  501    0  0.00000000000E+00  0.00000000000E+00  0.16716613144E+02  0.16716613903E+02  0.50400000000E-02 0. -1.
         -1   -1    0    0    0  501 -0.00000000000E+00 -0.00000000000E+00 -0.12767645501E+03  0.12767645511E+03  0.50400000000E-02 0.  1.
         23    2    1    2    0    0  0.00000000000E+00  0.71054273576E-14 -0.11095984186E+03  0.14439306901E+03  0.92397358575E+02 0.  0.
    9000005    2    3    3    0    0  0.16694188788E+02  0.33345195946E+02 -0.97023209301E+02  0.10458317377E+03  0.11555910184E+02 0.  0.
         22    1    3    3    0    0 -0.16694188788E+02 -0.33345195946E+02 -0.13936632561E+02  0.39809895241E+02  0.00000000000E+00 0. -1.
         22    1    4    4    0    0  0.36857662354E+01  0.99277005960E+01 -0.15504794333E+02  0.18776122048E+02  0.00000000000E+00 0.  1.
         22    1    4    4    0    0  0.13008422552E+02  0.23417495350E+02 -0.81518414968E+02  0.85807051719E+02  0.00000000000E+00 0.  1.
<mgrwt>
<rscale>  0 0.92397359E+02</rscale>
<asrwt>0</asrwt>
<pdfrwt beam="1">  1        1 0.25717868E-02 0.92397359E+02</pdfrwt>
<pdfrwt beam="2">  1       -1 0.19642531E-01 0.92397359E+02</pdfrwt>
<totfact> 0.74896547E+04</totfact>
</mgrwt>
</event>
<event>
 7    1  0.3565607E-009  0.9176647E+02  0.7818608E-02  0.1298629E+00
          1   -1    0    0  501    0  0.00000000000E+00  0.00000000000E+00  0.67614818391E+03  0.67614818393E+03  0.50400000000E-02 0. -1.
         -1   -1    0    0    0  501 -0.00000000000E+00 -0.00000000000E+00 -0.31136220143E+01  0.31136260934E+01  0.50400000000E-02 0.  1.
         23    2    1    2    0    0  0.00000000000E+00  0.00000000000E+00  0.67303456190E+03  0.67926181002E+03  0.91766470176E+02 0.  0.
    9000005    2    3    3    0    0  0.16641156722E+02 -0.11154294779E+02  0.64182891226E+03  0.64217894392E+03  0.69352011935E+01 0.  0.
         22    1    3    3    0    0 -0.16641156722E+02  0.11154294779E+02  0.31205649642E+02  0.37082866106E+02  0.00000000000E+00 0.  1.
         22    1    4    4    0    0  0.88575122104E+01 -0.48311917003E+01  0.42307736999E+03  0.42319765705E+03  0.00000000000E+00 0. -1.
         22    1    4    4    0    0  0.77836445111E+01 -0.63231030787E+01  0.21875154227E+03  0.21898128687E+03  0.00000000000E+00 0. -1.
<mgrwt>
<rscale>  0 0.91766470E+02</rscale>
<asrwt>0</asrwt>
<pdfrwt beam="1">  1        1 0.10402279E+00 0.91766470E+02</pdfrwt>
<pdfrwt beam="2">  1       -1 0.47901914E-03 0.91766470E+02</pdfrwt>
<totfact> 0.13977280E+05</totfact>
</mgrwt>
</event>
<event>
 7    1  0.3565607E-009  0.9221165E+02  0.7818608E-02  0.1297583E+00
          1   -1    0    0  501    0  0.00000000000E+00  0.00000000000E+00  0.76819463066E+02  0.76819463232E+02  0.50400000000E-02 0. -1.
         -1   -1    0    0    0  501 -0.00000000000E+00 -0.00000000000E+00 -0.27671986159E+02  0.27671986618E+02  0.50400000000E-02 0.  1.
         23    2    1    2    0    0  0.00000000000E+00  0.00000000000E+00  0.49147476908E+02  0.10449144985E+03  0.92211651136E+02 0.  0.
    9000005    2    3    3    0    0  0.87401684960E+01  0.37394959053E+02  0.51829786634E+02  0.65995108551E+02  0.13937505595E+02 0.  0.
         22    1    3    3    0    0 -0.87401684960E+01 -0.37394959053E+02 -0.26823097263E+01  0.38496341299E+02  0.00000000000E+00 0.  1.
         22    1    4    4    0    0  0.37185693458E+01  0.17354501426E+02  0.35394636919E+02  0.39595287603E+02  0.00000000000E+00 0.  1.
         22    1    4    4    0    0  0.50215991502E+01  0.20040457627E+02  0.16435149715E+02  0.26399820948E+02  0.00000000000E+00 0.  1.
<mgrwt>
<rscale>  0 0.92211651E+02</rscale>
<asrwt>0</asrwt>
<pdfrwt beam="1">  1        1 0.11818379E-01 0.92211651E+02</pdfrwt>
<pdfrwt beam="2">  1       -1 0.42572287E-02 0.92211651E+02</pdfrwt>
<totfact> 0.97040878E+04</totfact>
</mgrwt>
</event>
<event>
 7    1  0.3565607E-009  0.8814192E+02  0.7818608E-02  0.1307415E+00
          1   -1    0    0  501    0  0.00000000000E+00  0.00000000000E+00  0.30196216788E+02  0.30196217209E+02  0.50400000000E-02 0. -1.
         -1   -1    0    0    0  501 -0.00000000000E+00 -0.00000000000E+00 -0.64320957124E+02  0.64320957322E+02  0.50400000000E-02 0.  1.
         23    2    1    2    0    0  0.00000000000E+00  0.00000000000E+00 -0.34124740336E+02  0.94517174530E+02  0.88141921798E+02 0.  0.
    9000005    2    3    3    0    0 -0.39163260272E+02  0.32826767357E+01 -0.35604993678E+02  0.55188710644E+02  0.15282057650E+02 0.  0.
         22    1    3    3    0    0  0.39163260272E+02 -0.32826767357E+01  0.14802533416E+01  0.39328463887E+02  0.00000000000E+00 0.  1.
         22    1    4    4    0    0 -0.53540689929E+01  0.59878672628E+01 -0.47207614496E+01  0.93169843727E+01  0.00000000000E+00 0. -1.
         22    1    4    4    0    0 -0.33809191280E+02 -0.27051905271E+01 -0.30884232228E+02  0.45871726271E+02  0.00000000000E+00 0. -1.
<mgrwt>
<rscale>  0 0.88141922E+02</rscale>
<asrwt>0</asrwt>
<pdfrwt beam="1">  1        1 0.46455719E-02 0.88141922E+02</pdfrwt>
<pdfrwt beam="2">  1       -1 0.98955319E-02 0.88141922E+02</pdfrwt>
<totfact> 0.95591433E+04</totfact>
</mgrwt>
</event>
<event>
 7    1  0.3565607E-009  0.9026793E+02  0.7818608E-02  0.1302204E+00
         -1   -1    0    0    0  501 -0.00000000000E+00  0.00000000000E+00  0.74806313054E+02  0.74806313223E+02  0.50400000000E-02 0.  1.
          1   -1    0    0  501    0  0.00000000000E+00 -0.00000000000E+00 -0.27231318563E+02  0.27231319029E+02  0.50400000000E-02 0. -1.
         23    2    1    2    0    0 -0.35527136788E-14  0.00000000000E+00  0.47574994491E+02  0.10203763225E+03  0.90267925062E+02 0.  0.
    9000005    2    3    3    0    0 -0.22712090158E+02 -0.35788326944E+02  0.10840153835E+02  0.45947598353E+02  0.14036718791E+02 0.  0.
         22    1    3    3    0    0  0.22712090158E+02  0.35788326944E+02  0.36734840656E+02  0.56090033900E+02  0.00000000000E+00 0.  1.
         22    1    4    4    0    0 -0.13872789935E+02 -0.31467538245E+02  0.57404008517E+01  0.34865634451E+02  0.00000000000E+00 0. -1.
         22    1    4    4    0    0 -0.88393002238E+01 -0.43207886994E+01  0.50997529829E+01  0.11081963902E+02  0.00000000000E+00 0. -1.
<mgrwt>
<rscale>  0 0.90267925E+02</rscale>
<asrwt>0</asrwt>
<pdfrwt beam="2">  1        1 0.41894337E-02 0.90267925E+02</pdfrwt>
<pdfrwt beam="1">  1       -1 0.11508664E-01 0.90267925E+02</pdfrwt>
<totfact> 0.87822847E+04</totfact>
</mgrwt>
</event>
<event>
 7    1  0.3565607E-009  0.8885047E+02  0.7818608E-02  0.1305660E+00
         -1   -1    0    0    0  501 -0.00000000000E+00  0.00000000000E+00  0.33631910605E+02  0.33631910983E+02  0.50400000000E-02 0.  1.
          1   -1    0    0  501    0  0.00000000000E+00 -0.00000000000E+00 -0.58682410555E+02  0.58682410772E+02  0.50400000000E-02 0. -1.
         23    2    1    2    0    0 -0.35527136788E-14  0.35527136788E-14 -0.25050499950E+02  0.92314321754E+02  0.88850472442E+02 0.  0.
    9000005    2    3    3    0    0  0.23257304839E+02 -0.27633437292E+02 -0.39208670866E+02  0.53520470584E+02  0.47551882685E+01 0.  0.
         22    1    3    3    0    0 -0.23257304839E+02  0.27633437292E+02  0.14158170916E+02  0.38793851170E+02  0.00000000000E+00 0.  1.
         22    1    4    4    0    0  0.24783160155E+01 -0.54939871546E+01 -0.55962679078E+01  0.82246069586E+01  0.00000000000E+00 0. -1.
         22    1    4    4    0    0  0.20778988823E+02 -0.22139450138E+02 -0.33612402959E+02  0.45295863625E+02  0.00000000000E+00 0. -1.
<mgrwt>
<rscale>  0 0.88850472E+02</rscale>
<asrwt>0</asrwt>
<pdfrwt beam="2">  1        1 0.90280632E-02 0.88850472E+02</pdfrwt>
<pdfrwt beam="1">  1       -1 0.51741401E-02 0.88850472E+02</pdfrwt>
<totfact> 0.10317279E+05</totfact>
</mgrwt>
</event>
<event>
 6    1  0.3565607E-009  0.2139935E+03  0.7818608E-02  0.1138442E+00
         -1   -1    0    0    0  501 -0.00000000000E+00  0.00000000000E+00  0.22709550589E+02  0.22709551148E+02  0.50400000000E-02 0.  1.
          1   -1    0    0  501    0  0.00000000000E+00 -0.00000000000E+00 -0.50411840997E+03  0.50411841000E+03  0.50400000000E-02 0. -1.
    9000005    2    1    2    0    0  0.40872793082E+02  0.91294941798E+02 -0.33358418991E+03  0.34834131034E+03  0.76095411009E+01 0.  0.
         22    1    1    2    0    0 -0.40872793082E+02 -0.91294941798E+02 -0.14782466947E+03  0.17848665081E+03  0.00000000000E+00 0.  1.
         22    1    3    3    0    0  0.38096409611E+02  0.87636729941E+02 -0.32199184342E+03  0.33587241638E+03  0.00000000000E+00 0.  1.
         22    1    3    3    0    0  0.27763834716E+01  0.36582118568E+01 -0.11592346496E+02  0.12468893955E+02  0.00000000000E+00 0.  1.
<mgrwt>
<rscale>  0 0.21399348E+03</rscale>
<asrwt>0</asrwt>
<pdfrwt beam="2">  1        1 0.77556670E-01 0.21399348E+03</pdfrwt>
<pdfrwt beam="1">  1       -1 0.34937774E-02 0.21399348E+03</pdfrwt>
<totfact> 0.13161799E+04</totfact>
</mgrwt>
</event>
<event>
 7    1  0.3565607E-009  0.8920154E+02  0.7818608E-02  0.1304797E+00
          1   -1    0    0  501    0  0.00000000000E+00  0.00000000000E+00  0.27753556490E+03  0.27753556494E+03  0.50400000000E-02 0. -1.
         -1   -1    0    0    0  501 -0.00000000000E+00 -0.00000000000E+00 -0.71674714222E+01  0.71674731942E+01  0.50400000000E-02 0.  1.
         23    2    1    2    0    0 -0.35527136788E-14  0.44408920985E-15  0.27036809348E+03  0.28470303814E+03  0.89201535610E+02 0.  0.
    9000005    2    3    3    0    0 -0.27147476384E+02  0.21772240025E+01  0.24756876643E+03  0.24918494286E+03  0.78176632847E+01 0.  0.
         22    1    3    3    0    0  0.27147476384E+02 -0.21772240025E+01  0.22799327049E+02  0.35518095279E+02  0.00000000000E+00 0.  1.
         22    1    4    4    0    0 -0.11372553793E+02 -0.11824613090E+01  0.13231669265E+03  0.13280979011E+03  0.00000000000E+00 0.  1.
         22    1    4    4    0    0 -0.15774922591E+02  0.33596853115E+01  0.11525207378E+03  0.11637515275E+03  0.00000000000E+00 0.  1.
<mgrwt>
<rscale>  0 0.89201536E+02</rscale>
<asrwt>0</asrwt>
<pdfrwt beam="1">  1        1 0.42697781E-01 0.89201536E+02</pdfrwt>
<pdfrwt beam="2">  1       -1 0.11026880E-02 0.89201536E+02</pdfrwt>
<totfact> 0.13379684E+05</totfact>
</mgrwt>
</event>
<event>
 7    1  0.3565607E-009  0.5676833E+02  0.7818608E-02  0.1411917E+00
         -1   -1    0    0    0  501 -0.00000000000E+00  0.00000000000E+00  0.20186730151E+03  0.20186730158E+03  0.50400000000E-02 0.  1.
          1   -1    0    0  501    0  0.00000000000E+00 -0.00000000000E+00 -0.39910402004E+01  0.39910433828E+01  0.50400000000E-02 0. -1.
         23    2    1    2    0    0  0.00000000000E+00  0.00000000000E+00  0.19787626131E+03  0.20585834496E+03  0.56768330944E+02 0.  0.
    9000005    2    3    3    0    0 -0.50553214946E+01 -0.20179064380E+02  0.16495255379E+03  0.16691323703E+03  0.14762546494E+02 0.  0.
         22    1    3    3    0    0  0.50553214946E+01  0.20179064380E+02  0.32923707525E+02  0.38945107932E+02  0.00000000000E+00 0. -1.
         22    1    4    4    0    0  0.17344571696E+01 -0.29210163698E+00  0.51556573596E+02  0.51586567496E+02  0.00000000000E+00 0.  1.
         22    1    4    4    0    0 -0.67897786642E+01 -0.19886962743E+02  0.11339598019E+03  0.11532666953E+03  0.00000000000E+00 0.  1.
<mgrwt>
<rscale>  0 0.56768331E+02</rscale>
<asrwt>0</asrwt>
<pdfrwt beam="2">  1        1 0.61400645E-03 0.56768331E+02</pdfrwt>
<pdfrwt beam="1">  1       -1 0.31056507E-01 0.56768331E+02</pdfrwt>
<totfact> 0.23295023E+05</totfact>
</mgrwt>
</event>
<event>
 7    1  0.3565607E-009  0.9168752E+02  0.7818608E-02  0.1298816E+00
         -1   -1    0    0    0  501 -0.00000000000E+00  0.00000000000E+00  0.57291539538E+03  0.57291539540E+03  0.50400000000E-02 0.  1.
          1   -1    0    0  501    0  0.00000000000E+00 -0.00000000000E+00 -0.36683417594E+01  0.36683452217E+01  0.50400000000E-02 0. -1.
         23    2    1    2    0    0  0.00000000000E+00 -0.35527136788E-14  0.56924705362E+03  0.57658374062E+03  0.91687523121E+02 0.  0.
    9000005    2    3    3    0    0  0.45576209695E+01  0.27272961881E+02  0.51429693720E+03  0.51506868838E+03  0.54614806513E+01 0.  0.
         22    1    3    3    0    0 -0.45576209695E+01 -0.27272961881E+02  0.54950116417E+02  0.61515052247E+02  0.00000000000E+00 0. -1.
         22    1    4    4    0    0  0.56262205040E+01  0.25478639572E+02  0.47370370808E+03  0.47442177278E+03  0.00000000000E+00 0.  1.
         22    1    4    4    0    0 -0.10685995346E+01  0.17943223090E+01  0.40593229121E+02  0.40646915602E+02  0.00000000000E+00 0.  1.
<mgrwt>
<rscale>  0 0.91687523E+02</rscale>
<asrwt>0</asrwt>
<pdfrwt beam="2">  1        1 0.56436051E-03 0.91687523E+02</pdfrwt>
<pdfrwt beam="1">  1       -1 0.88140835E-01 0.91687523E+02</pdfrwt>
<totfact> 0.42388211E+04</totfact>
</mgrwt>
</event>
<event>
 7    1  0.3565607E-009  0.8712641E+02  0.7818608E-02  0.1309964E+00
          1   -1    0    0  501    0  0.00000000000E+00  0.00000000000E+00  0.17470290087E+03  0.17470290094E+03  0.50400000000E-02 0. -1.
         -1   -1    0    0    0  501 -0.00000000000E+00 -0.00000000000E+00 -0.10862742927E+02  0.10862744096E+02  0.50400000000E-02 0.  1.
         23    2    1    2    0    0 -0.71054273576E-14 -0.17763568394E-14  0.16384015795E+03  0.18556564504E+03  0.87126409680E+02 0.  0.
    9000005    2    3    3    0    0 -0.39908007089E+02 -0.13522480677E+02  0.79549022168E+02  0.91329229127E+02  0.15410212575E+02 0.  0.
         22    1    3    3    0    0  0.39908007089E+02  0.13522480677E+02  0.84291135778E+02  0.94236415914E+02  0.00000000000E+00 0.  1.
         22    1    4    4    0    0 -0.21675404159E+02  0.74091199754E+00  0.36831621918E+02  0.42742724166E+02  0.00000000000E+00 0. -1.
         22    1    4    4    0    0 -0.18232602930E+02 -0.14263392675E+02  0.42717400250E+02  0.48586504961E+02  0.00000000000E+00 0. -1.
<mgrwt>
<rscale>  0 0.87126410E+02</rscale>
<asrwt>0</asrwt>
<pdfrwt beam="1">  1        1 0.26877366E-01 0.87126410E+02</pdfrwt>
<pdfrwt beam="2">  1       -1 0.16711915E-02 0.87126410E+02</pdfrwt>
<totfact> 0.13030952E+05</totfact>
</mgrwt>
</event>
<event>
 7    1  0.3565607E-009  0.9099994E+02  0.7818608E-02  0.1300448E+00
         -1   -1    0    0    0  501 -0.00000000000E+00  0.00000000000E+00  0.17292650128E+01  0.17292723574E+01  0.50400000000E-02 0.  1.
          1   -1    0    0  501    0  0.00000000000E+00 -0.00000000000E+00 -0.11971808325E+04  0.11971808325E+04  0.50400000000E-02 0. -1.
         23    2    1    2    0    0  0.00000000000E+00  0.35527136788E-14 -0.11954515675E+04  0.11989101049E+04  0.90999941468E+02 0.  0.
    9000005    2    3    3    0    0  0.87196054011E+01 -0.29499232323E+02 -0.10345098365E+04  0.10350550561E+04  0.13495598014E+02 0.  0.
         22    1    3    3    0    0 -0.87196054011E+01  0.29499232323E+02 -0.16094173101E+03  0.16385504876E+03  0.00000000000E+00 0.  1.
         22    1    4    4    0    0  0.11786372508E+02 -0.27150715686E+02 -0.94123083580E+03  0.94169611139E+03  0.00000000000E+00 0.  1.
         22    1    4    4    0    0 -0.30667671073E+01 -0.23485166367E+01 -0.93279000711E+02  0.93358944748E+02  0.00000000000E+00 0.  1.
<mgrwt>
<rscale>  0 0.90999941E+02</rscale>
<asrwt>0</asrwt>
<pdfrwt beam="2">  1        1 0.18418100E+00 0.90999941E+02</pdfrwt>
<pdfrwt beam="1">  1       -1 0.26604229E-03 0.90999941E+02</pdfrwt>
<totfact> 0.12809849E+05</totfact>
</mgrwt>
</event>
<event>
 7    1  0.3565607E-009  0.1033164E+03  0.7818608E-02  0.1273473E+00
          1   -1    0    0  501    0  0.00000000000E+00  0.00000000000E+00  0.89371792645E+02  0.89371792787E+02  0.50400000000E-02 0. -1.
         -1   -1    0    0    0  501 -0.00000000000E+00 -0.00000000000E+00 -0.29859169500E+02  0.29859169925E+02  0.50400000000E-02 0.  1.
         23    2    1    2    0    0  0.71054273576E-14 -0.35527136788E-14  0.59512623146E+02  0.11923096271E+03  0.10331635957E+03 0.  0.
    9000005    2    3    3    0    0  0.46715166807E+02 -0.17734215280E+02  0.18531404552E+02  0.54606900020E+02  0.11903418573E+02 0.  0.
         22    1    3    3    0    0 -0.46715166807E+02  0.17734215280E+02  0.40981218594E+02  0.64624062692E+02  0.00000000000E+00 0. -1.
         22    1    4    4    0    0  0.40359645791E+02 -0.10469153944E+02  0.15613351626E+02  0.44522813722E+02  0.00000000000E+00 0.  1.
         22    1    4    4    0    0  0.63555210162E+01 -0.72650613356E+01  0.29180529256E+01  0.10084086298E+02  0.00000000000E+00 0.  1.
<mgrwt>
<rscale>  0 0.10331636E+03</rscale>
<asrwt>0</asrwt>
<pdfrwt beam="1">  1        1 0.13749507E-01 0.10331636E+03</pdfrwt>
<pdfrwt beam="2">  1       -1 0.45937184E-02 0.10331636E+03</pdfrwt>
<totfact> 0.72623526E+04</totfact>
</mgrwt>
</event>
<event>
 7    1  0.3565607E-009  0.9039999E+02  0.7818608E-02  0.1301886E+00
         -1   -1    0    0    0  501 -0.00000000000E+00  0.00000000000E+00  0.17061008127E+01  0.17061082571E+01  0.50400000000E-02 0.  1.
          1   -1    0    0  501    0  0.00000000000E+00 -0.00000000000E+00 -0.11974880004E+04  0.11974880004E+04  0.50400000000E-02 0. -1.
         23    2    1    2    0    0  0.00000000000E+00  0.00000000000E+00 -0.11957818996E+04  0.11991941086E+04  0.90399993819E+02 0.  0.
    9000005    2    3    3    0    0 -0.19358811520E+02 -0.20624389089E+02 -0.10622583954E+04  0.10627072772E+04  0.12398761556E+02 0.  0.
         22    1    3    3    0    0  0.19358811520E+02  0.20624389089E+02 -0.13352350415E+03  0.13648683149E+03  0.00000000000E+00 0.  1.
         22    1    4    4    0    0 -0.67287415076E+01 -0.12354856863E+02 -0.68917162605E+03  0.68931520265E+03  0.00000000000E+00 0. -1.
         22    1    4    4    0    0 -0.12630070012E+02 -0.82695322256E+01 -0.37308676936E+03  0.37339207451E+03  0.00000000000E+00 0. -1.
<mgrwt>
<rscale>  0 0.90399994E+02</rscale>
<asrwt>0</asrwt>
<pdfrwt beam="2">  1        1 0.18422825E+00 0.90399994E+02</pdfrwt>
<pdfrwt beam="1">  1       -1 0.26247858E-03 0.90399994E+02</pdfrwt>
<totfact> 0.13034305E+05</totfact>
</mgrwt>
</event>
<event>
 7    1  0.3565607E-009  0.1012539E+03  0.7818608E-02  0.1277681E+00
          1   -1    0    0  501    0  0.00000000000E+00  0.00000000000E+00  0.25061289826E+02  0.25061290332E+02  0.50400000000E-02 0. -1.
         -1   -1    0    0    0  501 -0.00000000000E+00 -0.00000000000E+00 -0.10227279124E+03  0.10227279136E+03  0.50400000000E-02 0.  1.
         23    2    1    2    0    0 -0.35527136788E-14 -0.71054273576E-14 -0.77211501410E+02  0.12733408169E+03  0.10125390072E+03 0.  0.
    9000005    2    3    3    0    0  0.16634730010E+02  0.47107344052E+02 -0.48455515895E+02  0.69691017851E+02  0.36172976544E+01 0.  0.
         22    1    3    3    0    0 -0.16634730010E+02 -0.47107344052E+02 -0.28755985515E+02  0.57643063841E+02  0.00000000000E+00 0.  1.
         22    1    4    4    0    0  0.16211691312E+02  0.43680635258E+02 -0.44332024782E+02  0.64312870041E+02  0.00000000000E+00 0.  1.
         22    1    4    4    0    0  0.42303869800E+00  0.34267087941E+01 -0.41234911134E+01  0.53781478096E+01  0.00000000000E+00 0.  1.
<mgrwt>
<rscale>  0 0.10125390E+03</rscale>
<asrwt>0</asrwt>
<pdfrwt beam="1">  1        1 0.38555831E-02 0.10125390E+03</pdfrwt>
<pdfrwt beam="2">  1       -1 0.15734275E-01 0.10125390E+03</pdfrwt>
<totfact> 0.61814081E+04</totfact>
</mgrwt>
</event>
<event>
 7    1  0.3565607E-009  0.9024773E+02  0.7818608E-02  0.1302253E+00
         -1   -1    0    0    0  501 -0.00000000000E+00  0.00000000000E+00  0.27735831539E+02  0.27735831997E+02  0.50400000000E-02 0.  1.
          1   -1    0    0  501    0  0.00000000000E+00 -0.00000000000E+00 -0.73412727225E+02  0.73412727398E+02  0.50400000000E-02 0. -1.
         23    2    1    2    0    0  0.00000000000E+00 -0.17763568394E-14 -0.45676895686E+02  0.10114855939E+03  0.90247727219E+02 0.  0.
    9000005    2    3    3    0    0 -0.38757743879E+02  0.14383617434E+02 -0.54531996879E+01  0.43468433867E+02  0.12276652432E+02 0.  0.
         22    1    3    3    0    0  0.38757743879E+02 -0.14383617434E+02 -0.40223695998E+02  0.57680125527E+02  0.00000000000E+00 0. -1.
         22    1    4    4    0    0 -0.37204058722E+02  0.10518938894E+02 -0.33640819274E+01  0.38808595801E+02  0.00000000000E+00 0. -1.
         22    1    4    4    0    0 -0.15536851571E+01  0.38646785398E+01 -0.20891177605E+01  0.46598380659E+01  0.00000000000E+00 0. -1.
<mgrwt>
<rscale>  0 0.90247727E+02</rscale>
<asrwt>0</asrwt>
<pdfrwt beam="2">  1        1 0.11294266E-01 0.90247727E+02</pdfrwt>
<pdfrwt beam="1">  1       -1 0.42670511E-02 0.90247727E+02</pdfrwt>
<totfact> 0.10223621E+05</totfact>
</mgrwt>
</event>
<event>
 7    1  0.3565607E-009  0.8651708E+02  0.7818608E-02  0.1311512E+00
          1   -1    0    0  501    0  0.00000000000E+00  0.00000000000E+00  0.52362530516E+02  0.52362530759E+02  0.50400000000E-02 0. -1.
         -1   -1    0    0    0  501 -0.00000000000E+00 -0.00000000000E+00 -0.35737411113E+02  0.35737411468E+02  0.50400000000E-02 0.  1.
         23    2    1    2    0    0  0.00000000000E+00  0.00000000000E+00  0.16625119404E+02  0.88099942227E+02  0.86517080540E+02 0.  0.
    9000005    2    3    3    0    0 -0.21940112586E+02 -0.31310200430E+02 -0.11005131804E+02  0.40928680075E+02  0.96097208803E+01 0.  0.
         22    1    3    3    0    0  0.21940112586E+02  0.31310200430E+02  0.27630251207E+02  0.47171262152E+02  0.00000000000E+00 0. -1.
         22    1    4    4    0    0 -0.11247924368E+02 -0.23821401617E+02 -0.66837825576E+01  0.27178078056E+02  0.00000000000E+00 0.  1.
         22    1    4    4    0    0 -0.10692188218E+02 -0.74887988136E+01 -0.43213492461E+01  0.13750602019E+02  0.00000000000E+00 0.  1.
<mgrwt>
<rscale>  0 0.86517081E+02</rscale>
<asrwt>0</asrwt>
<pdfrwt beam="1">  1        1 0.80557740E-02 0.86517081E+02</pdfrwt>
<pdfrwt beam="2">  1       -1 0.54980633E-02 0.86517081E+02</pdfrwt>
<totfact> 0.10921471E+05</totfact>
</mgrwt>
</event>
<event>
 7    1  0.3565607E-009  0.7592139E+02  0.7818608E-02  0.1341041E+00
         -1   -1    0    0    0  501 -0.00000000000E+00  0.00000000000E+00  0.21954657679E+01  0.21954715530E+01  0.50400000000E-02 0.  1.
          1   -1    0    0  501    0  0.00000000000E+00 -0.00000000000E+00 -0.65635843859E+03  0.65635843861E+03  0.50400000000E-02 0. -1.
         23    2    1    2    0    0  0.00000000000E+00  0.17763568394E-14 -0.65416297282E+03  0.65855391016E+03  0.75921390785E+02 0.  0.
    9000005    2    3    3    0    0  0.14648468812E+02  0.84656309287E+01 -0.62096052873E+03  0.62128935811E+03  0.11056388291E+02 0.  0.
         22    1    3    3    0    0 -0.14648468812E+02 -0.84656309287E+01 -0.33202444098E+02  0.37264552052E+02  0.00000000000E+00 0.  1.
         22    1    4    4    0    0  0.61547907102E+01 -0.21289960311E+01 -0.23417186368E+03  0.23426240803E+03  0.00000000000E+00 0.  1.
         22    1    4    4    0    0  0.84936781022E+01  0.10594626960E+02 -0.38678866504E+03  0.38702695009E+03  0.00000000000E+00 0.  1.
<mgrwt>
<rscale>  0 0.75921391E+02</rscale>
<asrwt>0</asrwt>
<pdfrwt beam="2">  1        1 0.10097807E+00 0.75921391E+02</pdfrwt>
<pdfrwt beam="1">  1       -1 0.33776493E-03 0.75921391E+02</pdfrwt>
<totfact> 0.22967632E+05</totfact>
</mgrwt>
</event>
<event>
 7    1  0.3565607E-009  0.9307466E+02  0.7818608E-02  0.1295572E+00
         -1   -1    0    0    0  501 -0.00000000000E+00  0.00000000000E+00  0.12575604933E+01  0.12575705928E+01  0.50400000000E-02 0.  1.
          1   -1    0    0  501    0  0.00000000000E+00 -0.00000000000E+00 -0.17221552516E+04  0.17221552516E+04  0.50400000000E-02 0. -1.
         23    2    1    2    0    0  0.00000000000E+00  0.17763568394E-14 -0.17208976911E+04  0.17234128222E+04  0.93074660717E+02 0.  0.
    9000005    2    3    3    0    0 -0.22398357529E+02 -0.12834023990E+02 -0.15769166224E+04  0.15771358700E+04  0.50119781724E+01 0.  0.
         22    1    3    3    0    0  0.22398357529E+02  0.12834023990E+02 -0.14398106870E+03  0.14627695217E+03  0.00000000000E+00 0. -1.
         22    1    4    4    0    0 -0.26009473006E+01 -0.35661533794E+01 -0.24091057887E+03  0.24095101035E+03  0.00000000000E+00 0. -1.
         22    1    4    4    0    0 -0.19797410229E+02 -0.92678706107E+01 -0.13360060436E+04  0.13361848597E+04  0.00000000000E+00 0. -1.
<mgrwt>
<rscale>  0 0.93074661E+02</rscale>
<asrwt>0</asrwt>
<pdfrwt beam="2">  1        1 0.26494508E+00 0.93074661E+02</pdfrwt>
<pdfrwt beam="1">  1       -1 0.19347300E-03 0.93074661E+02</pdfrwt>
<totfact> 0.91671885E+04</totfact>
</mgrwt>
</event>
<event>
 7    1  0.3565607E-009  0.9156301E+02  0.7818608E-02  0.1299110E+00
          1   -1    0    0  501    0  0.00000000000E+00  0.00000000000E+00  0.34503878576E+03  0.34503878580E+03  0.50400000000E-02 0. -1.
         -1   -1    0    0    0  501 -0.00000000000E+00 -0.00000000000E+00 -0.60745230406E+01  0.60745251314E+01  0.50400000000E-02 0.  1.
         23    2    1    2    0    0  0.00000000000E+00  0.88817841970E-15  0.33896426272E+03  0.35111331093E+03  0.91563014969E+02 0.  0.
    9000005    2    3    3    0    0  0.11526792247E+02  0.49095879186E+01  0.33829603997E+03  0.33856669726E+03  0.51212144714E+01 0.  0.
         22    1    3    3    0    0 -0.11526792247E+02 -0.49095879186E+01  0.66822274979E+00  0.12546613674E+02  0.00000000000E+00 0.  1.
         22    1    4    4    0    0  0.29454406614E+01  0.66053438570E+00  0.38652315713E+02  0.38770006917E+02  0.00000000000E+00 0. -1.
         22    1    4    4    0    0  0.85813515855E+01  0.42490535329E+01  0.29964372426E+03  0.29979669034E+03  0.00000000000E+00 0. -1.
<mgrwt>
<rscale>  0 0.91563015E+02</rscale>
<asrwt>0</asrwt>
<pdfrwt beam="1">  1        1 0.53082890E-01 0.91563015E+02</pdfrwt>
<pdfrwt beam="2">  1       -1 0.93454217E-03 0.91563015E+02</pdfrwt>
<totfact> 0.13002451E+05</totfact>
</mgrwt>
</event>
<event>
 6    1  0.3565607E-009  0.2508078E+03  0.7818608E-02  0.1112795E+00
         -1   -1    0    0    0  501 -0.00000000000E+00  0.00000000000E+00  0.19783574045E+03  0.19783574051E+03  0.50400000000E-02 0.  1.
          1   -1    0    0  501    0  0.00000000000E+00 -0.00000000000E+00 -0.79490897849E+02  0.79490898009E+02  0.50400000000E-02 0. -1.
    9000005    2    1    2    0    0  0.11431654963E+03 -0.26725821847E+02  0.11535790179E+02  0.11861080203E+03  0.12365469282E+02 0.  0.
         22    1    1    2    0    0 -0.11431654963E+03  0.26725821847E+02  0.10680905242E+03  0.15871583649E+03  0.00000000000E+00 0.  1.
         22    1    3    3    0    0  0.13253853195E+02 -0.58303850559E+01  0.45360567321E+01  0.15173457915E+02  0.00000000000E+00 0. -1.
         22    1    3    3    0    0  0.10106269644E+03 -0.20895436791E+02  0.69997334473E+01  0.10343734412E+03  0.00000000000E+00 0. -1.
<mgrwt>
<rscale>  0 0.25080782E+03</rscale>
<asrwt>0</asrwt>
<pdfrwt beam="2">  1        1 0.12229369E-01 0.25080782E+03</pdfrwt>
<pdfrwt beam="1">  1       -1 0.30436267E-01 0.25080782E+03</pdfrwt>
<totfact> 0.48228465E+03</totfact>
</mgrwt>
</event>
<event>
 7    1  0.3565607E-009  0.1017799E+03  0.7818608E-02  0.1276597E+00
          1   -1    0    0  501    0  0.00000000000E+00  0.00000000000E+00  0.97775041400E+01  0.97775054390E+01  0.50400000000E-02 0. -1.
         -1   -1    0    0    0  501 -0.00000000000E+00 -0.00000000000E+00 -0.26487200459E+03  0.26487200464E+03  0.50400000000E-02 0.  1.
         23    2    1    2    0    0  0.35527136788E-14  0.00000000000E+00 -0.25509450045E+03  0.27464951008E+03  0.10177990581E+03 0.  0.
    9000005    2    3    3    0    0 -0.31236006313E+02 -0.33636217521E+02 -0.18623293170E+03  0.19189083155E+03  0.56835875206E+01 0.  0.
         22    1    3    3    0    0  0.31236006313E+02  0.33636217521E+02 -0.68861568756E+02  0.82758678525E+02  0.00000000000E+00 0. -1.
         22    1    4    4    0    0 -0.20458253446E+02 -0.19862874871E+02 -0.10551668589E+03  0.10930162365E+03  0.00000000000E+00 0. -1.
         22    1    4    4    0    0 -0.10777752867E+02 -0.13773342650E+02 -0.80716245805E+02  0.82589207900E+02  0.00000000000E+00 0. -1.
<mgrwt>
<rscale>  0 0.10177991E+03</rscale>
<asrwt>0</asrwt>
<pdfrwt beam="1">  1        1 0.15042317E-02 0.10177991E+03</pdfrwt>
<pdfrwt beam="2">  1       -1 0.40749534E-01 0.10177991E+03</pdfrwt>
<totfact> 0.47567545E+04</totfact>
</mgrwt>
</event>
<event>
 7    1  0.3565607E-009  0.9137419E+02  0.7818608E-02  0.1299558E+00
          1   -1    0    0  501    0  0.00000000000E+00  0.00000000000E+00  0.51403142988E+02  0.51403143235E+02  0.50400000000E-02 0. -1.
         -1   -1    0    0    0  501 -0.00000000000E+00 -0.00000000000E+00 -0.40606673287E+02  0.40606673600E+02  0.50400000000E-02 0.  1.
         23    2    1    2    0    0  0.00000000000E+00  0.00000000000E+00  0.10796469701E+02  0.92009816835E+02  0.91374190207E+02 0.  0.
    9000005    2    3    3    0    0  0.36932542396E+02 -0.22341333094E+02 -0.61429051213E+01  0.45640750944E+02  0.13497963225E+02 0.  0.
         22    1    3    3    0    0 -0.36932542396E+02  0.22341333094E+02  0.16939374823E+02  0.46369065891E+02  0.00000000000E+00 0. -1.
         22    1    4    4    0    0  0.34044054047E+02 -0.24138231710E+02 -0.64355493499E+01  0.42226391528E+02  0.00000000000E+00 0. -1.
         22    1    4    4    0    0  0.28884883483E+01  0.17968986165E+01  0.29264422865E+00  0.34143594158E+01  0.00000000000E+00 0. -1.
<mgrwt>
<rscale>  0 0.91374190E+02</rscale>
<asrwt>0</asrwt>
<pdfrwt beam="1">  1        1 0.79081759E-02 0.91374190E+02</pdfrwt>
<pdfrwt beam="2">  1       -1 0.62471806E-02 0.91374190E+02</pdfrwt>
<totfact> 0.93586929E+04</totfact>
</mgrwt>
</event>
<event>
 7    1  0.3565607E-009  0.9112566E+02  0.7818608E-02  0.1300148E+00
         -1   -1    0    0    0  501 -0.00000000000E+00  0.00000000000E+00  0.35826863525E+03  0.35826863528E+03  0.50400000000E-02 0. -1.
          1   -1    0    0  501    0  0.00000000000E+00 -0.00000000000E+00 -0.57944541958E+01  0.57944563877E+01  0.50400000000E-02 0.  1.
         23    2    1    2    0    0  0.17763568394E-14  0.00000000000E+00  0.35247418105E+03  0.36406309167E+03  0.91125662734E+02 0.  0.
    9000005    2    3    3    0    0  0.11130436293E+02 -0.88450840342E+01  0.34906996849E+03  0.34944424128E+03  0.77014763107E+01 0.  0.
         22    1    3    3    0    0 -0.11130436293E+02  0.88450840342E+01  0.34042125631E+01  0.14618850394E+02  0.00000000000E+00 0.  1.
         22    1    4    4    0    0  0.12114799080E+02 -0.68104346529E+01  0.30451196244E+03  0.30482894490E+03  0.00000000000E+00 0.  1.
         22    1    4    4    0    0 -0.98436278661E+00 -0.20346493813E+01  0.44558006049E+02  0.44615296382E+02  0.00000000000E+00 0.  1.
<mgrwt>
<rscale>  0 0.91125663E+02</rscale>
<asrwt>0</asrwt>
<pdfrwt beam="2">  1        1 0.89145430E-03 0.91125663E+02</pdfrwt>
<pdfrwt beam="1">  1       -1 0.55118274E-01 0.91125663E+02</pdfrwt>
<totfact> 0.56272757E+04</totfact>
</mgrwt>
</event>
<event>
 7    1  0.3565607E-009  0.9262742E+02  0.7818608E-02  0.1296611E+00
         -1   -1    0    0    0  501 -0.00000000000E+00  0.00000000000E+00  0.20175074449E+03  0.20175074456E+03  0.50400000000E-02 0.  1.
          1   -1    0    0  501    0  0.00000000000E+00 -0.00000000000E+00 -0.10631730779E+02  0.10631731973E+02  0.50400000000E-02 0. -1.
         23    2    1    2    0    0  0.00000000000E+00  0.44408920985E-15  0.19111901371E+03  0.21238247653E+03  0.92627419988E+02 0.  0.
    9000005    2    3    3    0    0  0.41167708284E+02 -0.23872235668E+01  0.14151788949E+03  0.14787859629E+03  0.11844287786E+02 0.  0.
         22    1    3    3    0    0 -0.41167708284E+02  0.23872235668E+01  0.49601124224E+02  0.64503880240E+02  0.00000000000E+00 0. -1.
         22    1    4    4    0    0  0.14526765314E+02  0.47415781502E+01  0.53738678715E+02  0.55869088626E+02  0.00000000000E+00 0. -1.
         22    1    4    4    0    0  0.26640942970E+02 -0.71288017169E+01  0.87779210774E+02  0.92009507663E+02  0.00000000000E+00 0. -1.
<mgrwt>
<rscale>  0 0.92627420E+02</rscale>
<asrwt>0</asrwt>
<pdfrwt beam="2">  1        1 0.16356510E-02 0.92627420E+02</pdfrwt>
<pdfrwt beam="1">  1       -1 0.31038575E-01 0.92627420E+02</pdfrwt>
<totfact> 0.66457198E+04</totfact>
</mgrwt>
</event>
<event>
 7    1  0.3565607E-009  0.9154115E+02  0.7818608E-02  0.1299162E+00
         -1   -1    0    0    0  501 -0.00000000000E+00  0.00000000000E+00  0.40814563370E+02  0.40814563681E+02  0.50400000000E-02 0.  1.
          1   -1    0    0  501    0  0.00000000000E+00 -0.00000000000E+00 -0.51328385985E+02  0.51328386233E+02  0.50400000000E-02 0. -1.
         23    2    1    2    0    0  0.00000000000E+00  0.00000000000E+00 -0.10513822616E+02  0.92142949914E+02  0.91541153329E+02 0.  0.
    9000005    2    3    3    0    0 -0.18200105134E+02  0.63931899829E+01  0.36368939033E+02  0.41446697144E+02  0.47971108709E+01 0.  0.
         22    1    3    3    0    0  0.18200105134E+02 -0.63931899829E+01 -0.46882761649E+02  0.50696252770E+02  0.00000000000E+00 0. -1.
         22    1    4    4    0    0 -0.11086722208E+02  0.63000035139E+01  0.22643342165E+02  0.25987042886E+02  0.00000000000E+00 0. -1.
         22    1    4    4    0    0 -0.71133829265E+01  0.93186468976E-01  0.13725596868E+02  0.15459654258E+02  0.00000000000E+00 0. -1.
<mgrwt>
<rscale>  0 0.91541153E+02</rscale>
<asrwt>0</asrwt>
<pdfrwt beam="2">  1        1 0.78966748E-02 0.91541153E+02</pdfrwt>
<pdfrwt beam="1">  1       -1 0.62791636E-02 0.91541153E+02</pdfrwt>
<totfact> 0.93090040E+04</totfact>
</mgrwt>
</event>
<event>
 7    1  0.3565607E-009  0.8785807E+02  0.7818608E-02  0.1308123E+00
          1   -1    0    0  501    0  0.00000000000E+00  0.00000000000E+00  0.92278711261E+01  0.92278725025E+01  0.50400000000E-02 0. -1.
         -1   -1    0    0    0  501 -0.00000000000E+00 -0.00000000000E+00 -0.20912296643E+03  0.20912296649E+03  0.50400000000E-02 0.  1.
         23    2    1    2    0    0  0.00000000000E+00  0.00000000000E+00 -0.19989509531E+03  0.21835083900E+03  0.87858066008E+02 0.  0.
    9000005    2    3    3    0    0 -0.15304872317E+02  0.40492035587E+02 -0.10058027146E+03  0.11001211878E+03  0.10603358361E+02 0.  0.
         22    1    3    3    0    0  0.15304872317E+02 -0.40492035587E+02 -0.99314823845E+02  0.10833872022E+03  0.00000000000E+00 0.  1.
         22    1    4    4    0    0  0.12966308732E+01  0.57554303477E+01 -0.16897089316E+02  0.17897426001E+02  0.00000000000E+00 0. -1.
         22    1    4    4    0    0 -0.16601503191E+02  0.34736605240E+02 -0.83683182146E+02  0.92114692779E+02  0.00000000000E+00 0. -1.
<mgrwt>
<rscale>  0 0.87858066E+02</rscale>
<asrwt>0</asrwt>
<pdfrwt beam="1">  1        1 0.14196727E-02 0.87858066E+02</pdfrwt>
<pdfrwt beam="2">  1       -1 0.32172761E-01 0.87858066E+02</pdfrwt>
<totfact> 0.75471161E+04</totfact>
</mgrwt>
</event>
<event>
 7    1  0.3565607E-009  0.9112730E+02  0.7818608E-02  0.1300145E+00
          1   -1    0    0  501    0  0.00000000000E+00  0.00000000000E+00  0.33012312275E+03  0.33012312279E+03  0.50400000000E-02 0. -1.
         -1   -1    0    0    0  501 -0.00000000000E+00 -0.00000000000E+00 -0.62887016199E+01  0.62887036395E+01  0.50400000000E-02 0.  1.
         23    2    1    2    0    0  0.00000000000E+00  0.00000000000E+00  0.32383442113E+03  0.33641182643E+03  0.91127299159E+02 0.  0.
    9000005    2    3    3    0    0 -0.31720555429E+02  0.25570721140E+02  0.91991843972E+02  0.10101633794E+03  0.90413360434E+01 0.  0.
         22    1    3    3    0    0  0.31720555429E+02 -0.25570721140E+02  0.23184257716E+03  0.23539548849E+03  0.00000000000E+00 0. -1.
         22    1    4    4    0    0 -0.66909096041E+01  0.57882848410E+01  0.12095357199E+02  0.14985665768E+02  0.00000000000E+00 0.  1.
         22    1    4    4    0    0 -0.25029645825E+02  0.19782436299E+02  0.79896486773E+02  0.86030672174E+02  0.00000000000E+00 0.  1.
<mgrwt>
<rscale>  0 0.91127299E+02</rscale>
<asrwt>0</asrwt>
<pdfrwt beam="1">  1        1 0.50788181E-01 0.91127299E+02</pdfrwt>
<pdfrwt beam="2">  1       -1 0.96749256E-03 0.91127299E+02</pdfrwt>
<totfact> 0.13063086E+05</totfact>
</mgrwt>
</event>
<event>
 6    1  0.3565607E-009  0.1848410E+03  0.7818608E-02  0.1163198E+00
          1   -1    0    0  501    0  0.00000000000E+00  0.00000000000E+00  0.13183933786E+03  0.13183933796E+03  0.50400000000E-02 0.  1.
         -1   -1    0    0    0  501 -0.00000000000E+00 -0.00000000000E+00 -0.64787524374E+02  0.64787524570E+02  0.50400000000E-02 0. -1.
    9000005    2    1    2    0    0 -0.64646317162E+02  0.42449726310E+01 -0.35315929704E+02  0.75480996065E+02  0.15905966203E+02 0.  0.
         22    1    1    2    0    0  0.64646317162E+02 -0.42449726310E+01  0.10236774319E+03  0.12114586647E+03  0.00000000000E+00 0.  1.
         22    1    3    3    0    0 -0.61854709930E+02  0.30375066520E+00 -0.33276481066E+02  0.70238320005E+02  0.00000000000E+00 0. -1.
         22    1    3    3    0    0 -0.27916072319E+01  0.39412219658E+01 -0.20394486380E+01  0.52426760598E+01  0.00000000000E+00 0. -1.
<mgrwt>
<rscale>  0 0.18484095E+03</rscale>
<asrwt>0</asrwt>
<pdfrwt beam="1">  1        1 0.20282975E-01 0.18484095E+03</pdfrwt>
<pdfrwt beam="2">  1       -1 0.99673116E-02 0.18484095E+03</pdfrwt>
<totfact> 0.14721738E+04</totfact>
</mgrwt>
</event>
<event>
 7    1  0.3565607E-009  0.1024765E+03  0.7818608E-02  0.1275173E+00
          1   -1    0    0  501    0  0.00000000000E+00  0.00000000000E+00  0.41841126803E+03  0.41841126806E+03  0.50400000000E-02 0. -1.
         -1   -1    0    0    0  501 -0.00000000000E+00 -0.00000000000E+00 -0.62745832722E+01  0.62745852963E+01  0.50400000000E-02 0.  1.
         23    2    1    2    0    0  0.00000000000E+00 -0.35527136788E-14  0.41213668476E+03  0.42468585336E+03  0.10247647105E+03 0.  0.
    9000005    2    3    3    0    0  0.40131543192E+02 -0.30110738868E+02  0.16621133459E+03  0.17369486705E+03  0.51479838537E+01 0.  0.
         22    1    3    3    0    0 -0.40131543192E+02  0.30110738868E+02  0.24592535017E+03  0.25099098631E+03  0.00000000000E+00 0. -1.
         22    1    4    4    0    0  0.31572392862E+02 -0.22074671336E+02  0.12104283546E+03  0.12702549005E+03  0.00000000000E+00 0. -1.
         22    1    4    4    0    0  0.85591503295E+01 -0.80360675320E+01  0.45168499133E+02  0.46669377001E+02  0.00000000000E+00 0. -1.
<mgrwt>
<rscale>  0 0.10247647E+03</rscale>
<asrwt>0</asrwt>
<pdfrwt beam="1">  1        1 0.64370950E-01 0.10247647E+03</pdfrwt>
<pdfrwt beam="2">  1       -1 0.96532088E-03 0.10247647E+03</pdfrwt>
<totfact> 0.99454548E+04</totfact>
</mgrwt>
</event>
<event>
 7    1  0.3565607E-009  0.9446516E+02  0.7818608E-02  0.1292385E+00
          1   -1    0    0  501    0  0.00000000000E+00  0.00000000000E+00  0.12816500990E+04  0.12816500990E+04  0.50400000000E-02 0. -1.
         -1   -1    0    0    0  501 -0.00000000000E+00 -0.00000000000E+00 -0.17406561306E+01  0.17406634272E+01  0.50400000000E-02 0.  1.
         23    2    1    2    0    0  0.00000000000E+00 -0.17763568394E-14  0.12799094429E+04  0.12833907624E+04  0.94465163751E+02 0.  0.
    9000005    2    3    3    0    0  0.26081224021E+02 -0.13323634777E+02  0.11431897205E+04  0.11435693335E+04  0.32146694624E+01 0.  0.
         22    1    3    3    0    0 -0.26081224021E+02  0.13323634777E+02  0.13671972240E+03  0.13982142891E+03  0.00000000000E+00 0.  1.
         22    1    4    4    0    0  0.16074348739E+02 -0.82896595755E+01  0.76495501681E+03  0.76516879242E+03  0.00000000000E+00 0.  1.
         22    1    4    4    0    0  0.10006875282E+02 -0.50339752018E+01  0.37823470366E+03  0.37840054111E+03  0.00000000000E+00 0.  1.
<mgrwt>
<rscale>  0 0.94465164E+02</rscale>
<asrwt>0</asrwt>
<pdfrwt beam="1">  1        1 0.19717745E+00 0.94465164E+02</pdfrwt>
<pdfrwt beam="2">  1       -1 0.26779313E-03 0.94465164E+02</pdfrwt>
<totfact> 0.11203725E+05</totfact>
</mgrwt>
</event>
<event>
 7    1  0.3565607E-009  0.8183413E+02  0.7818608E-02  0.1323926E+00
          1   -1    0    0  501    0  0.00000000000E+00  0.00000000000E+00  0.14508070116E+03  0.14508070125E+03  0.50400000000E-02 0. -1.
         -1   -1    0    0    0  501 -0.00000000000E+00 -0.00000000000E+00 -0.11539825962E+02  0.11539827063E+02  0.50400000000E-02 0.  1.
         23    2    1    2    0    0  0.00000000000E+00  0.00000000000E+00  0.13354087520E+03  0.15662052831E+03  0.81834128208E+02 0.  0.
    9000005    2    3    3    0    0 -0.29572470467E+02 -0.21691338414E+02  0.98142479749E+02  0.10564905029E+03  0.13591553379E+02 0.  0.
         22    1    3    3    0    0  0.29572470467E+02  0.21691338414E+02  0.35398395452E+02  0.50971478027E+02  0.00000000000E+00 0.  1.
         22    1    4    4    0    0 -0.28175204652E+02 -0.21755086379E+02  0.81335250740E+02  0.88783720093E+02  0.00000000000E+00 0.  1.
         22    1    4    4    0    0 -0.13972658153E+01  0.63747965307E-01  0.16807229009E+02  0.16865330193E+02  0.00000000000E+00 0.  1.
<mgrwt>
<rscale>  0 0.81834128E+02</rscale>
<asrwt>0</asrwt>
<pdfrwt beam="1">  1        1 0.22320108E-01 0.81834128E+02</pdfrwt>
<pdfrwt beam="2">  1       -1 0.17753580E-02 0.81834128E+02</pdfrwt>
<totfact> 0.14892041E+05</totfact>
</mgrwt>
</event>
<event>
 7    1  0.3565607E-009  0.9036952E+02  0.7818608E-02  0.1301959E+00
         -1   -1    0    0    0  501 -0.00000000000E+00  0.00000000000E+00  0.12021461390E+02  0.12021462447E+02  0.50400000000E-02 0.  1.
          1   -1    0    0  501    0  0.00000000000E+00 -0.00000000000E+00 -0.16983478504E+03  0.16983478512E+03  0.50400000000E-02 0. -1.
         23    2    1    2    0    0  0.00000000000E+00 -0.44408920985E-15 -0.15781332365E+03  0.18185624756E+03  0.90369517293E+02 0.  0.
    9000005    2    3    3    0    0  0.12963291495E+02 -0.29725109868E+01 -0.16553889203E+03  0.16647550783E+03  0.11579602030E+02 0.  0.
         22    1    3    3    0    0 -0.12963291495E+02  0.29725109868E+01  0.77255683822E+01  0.15380739734E+02  0.00000000000E+00 0.  1.
         22    1    4    4    0    0  0.10454423180E+02  0.29611397534E+00 -0.15106275485E+03  0.15142436577E+03  0.00000000000E+00 0.  1.
         22    1    4    4    0    0  0.25088683149E+01 -0.32686249622E+01 -0.14476137186E+02  0.15051142056E+02  0.00000000000E+00 0.  1.
<mgrwt>
<rscale>  0 0.90369517E+02</rscale>
<asrwt>0</asrwt>
<pdfrwt beam="2">  1        1 0.26128427E-01 0.90369517E+02</pdfrwt>
<pdfrwt beam="1">  1       -1 0.18494558E-02 0.90369517E+02</pdfrwt>
<totfact> 0.11753040E+05</totfact>
</mgrwt>
</event>
<event>
 7    1  0.3565607E-009  0.9076197E+02  0.7818608E-02  0.1301017E+00
          1   -1    0    0  501    0  0.00000000000E+00  0.00000000000E+00  0.97296284201E+01  0.97296297254E+01  0.50400000000E-02 0. -1.
         -1   -1    0    0    0  501 -0.00000000000E+00 -0.00000000000E+00 -0.21166622501E+03  0.21166622507E+03  0.50400000000E-02 0.  1.
         23    2    1    2    0    0  0.00000000000E+00 -0.71054273576E-14 -0.20193659659E+03  0.22139585479E+03  0.90761971542E+02 0.  0.
    9000005    2    3    3    0    0  0.90683398044E+01 -0.41613372579E+02 -0.76691514816E+02  0.89107389415E+02  0.15640678994E+02 0.  0.
         22    1    3    3    0    0 -0.90683398044E+01  0.41613372579E+02 -0.12524508177E+03  0.13228846538E+03  0.00000000000E+00 0.  1.
         22    1    4    4    0    0  0.84519812846E+01 -0.39998530315E+02 -0.77155979215E+02  0.87317601568E+02  0.00000000000E+00 0. -1.
         22    1    4    4    0    0  0.61635851985E+00 -0.16148422636E+01  0.46446439823E+00  0.17897878474E+01  0.00000000000E+00 0. -1.
<mgrwt>
<rscale>  0 0.90761972E+02</rscale>
<asrwt>0</asrwt>
<pdfrwt beam="1">  1        1 0.14968662E-02 0.90761972E+02</pdfrwt>
<pdfrwt beam="2">  1       -1 0.32564031E-01 0.90761972E+02</pdfrwt>
<totfact> 0.69100840E+04</totfact>
</mgrwt>
</event>
<event>
 7    1  0.3565607E-009  0.9076689E+02  0.7818608E-02  0.1301005E+00
         -1   -1    0    0    0  501 -0.00000000000E+00  0.00000000000E+00  0.23727872313E+01  0.23727925840E+01  0.50400000000E-02 0.  1.
          1   -1    0    0  501    0  0.00000000000E+00 -0.00000000000E+00 -0.86803174224E+03  0.86803174226E+03  0.50400000000E-02 0. -1.
         23    2    1    2    0    0  0.00000000000E+00  0.44408920985E-15 -0.86565895501E+03  0.87040453484E+03  0.90766887580E+02 0.  0.
    9000005    2    3    3    0    0  0.16513537979E+02  0.15267442532E+01 -0.83748777004E+03  0.83771442093E+03  0.10230258524E+02 0.  0.
         22    1    3    3    0    0 -0.16513537979E+02 -0.15267442532E+01 -0.28171184972E+02  0.32690113908E+02  0.00000000000E+00 0.  1.
         22    1    4    4    0    0  0.28995264821E+01  0.44181578623E+01 -0.29970750665E+03  0.29975409408E+03  0.00000000000E+00 0.  1.
         22    1    4    4    0    0  0.13614011497E+02 -0.28914136091E+01 -0.53778026339E+03  0.53796032685E+03  0.00000000000E+00 0.  1.
<mgrwt>
<rscale>  0 0.90766888E+02</rscale>
<asrwt>0</asrwt>
<pdfrwt beam="2">  1        1 0.13354309E+00 0.90766888E+02</pdfrwt>
<pdfrwt beam="1">  1       -1 0.36504529E-03 0.90766888E+02</pdfrwt>
<totfact> 0.14165367E+05</totfact>
</mgrwt>
</event>
<event>
 7    1  0.3565607E-009  0.9263835E+02  0.7818608E-02  0.1296585E+00
         -1   -1    0    0    0  501 -0.00000000000E+00  0.00000000000E+00  0.15377946017E+02  0.15377946842E+02  0.50400000000E-02 0.  1.
          1   -1    0    0  501    0  0.00000000000E+00 -0.00000000000E+00 -0.13951576464E+03  0.13951576473E+03  0.50400000000E-02 0. -1.
         23    2    1    2    0    0  0.00000000000E+00 -0.35527136788E-14 -0.12413781862E+03  0.15489371157E+03  0.92638349902E+02 0.  0.
    9000005    2    3    3    0    0 -0.68548383412E+01 -0.24618923596E+02  0.23177867517E+01  0.25881695317E+02  0.33778409311E+01 0.  0.
         22    1    3    3    0    0  0.68548383412E+01  0.24618923596E+02 -0.12645560538E+03  0.12901201626E+03  0.00000000000E+00 0. -1.
         22    1    4    4    0    0 -0.22526009655E+00 -0.76158520741E+00  0.71483904377E+00  0.10685265545E+01  0.00000000000E+00 0. -1.
         22    1    4    4    0    0 -0.66295782447E+01 -0.23857338389E+02  0.16029477079E+01  0.24813168763E+02  0.00000000000E+00 0. -1.
<mgrwt>
<rscale>  0 0.92638350E+02</rscale>
<asrwt>0</asrwt>
<pdfrwt beam="2">  1        1 0.21463963E-01 0.92638350E+02</pdfrwt>
<pdfrwt beam="1">  1       -1 0.23658380E-02 0.92638350E+02</pdfrwt>
<totfact> 0.10599789E+05</totfact>
</mgrwt>
</event>
<event>
 7    1  0.3565607E-009  0.8892200E+02  0.7818608E-02  0.1305483E+00
         -1   -1    0    0    0  501 -0.00000000000E+00  0.00000000000E+00  0.63463364130E+01  0.63463384143E+01  0.50400000000E-02 0.  1.
          1   -1    0    0  501    0  0.00000000000E+00 -0.00000000000E+00 -0.31148366287E+03  0.31148366291E+03  0.50400000000E-02 0. -1.
         23    2    1    2    0    0 -0.17763568394E-14  0.00000000000E+00 -0.30513732646E+03  0.31783000133E+03  0.88921998094E+02 0.  0.
    9000005    2    3    3    0    0 -0.11105940823E+02 -0.42751534839E+02 -0.16481290397E+03  0.17071786994E+03  0.55011045501E+01 0.  0.
         22    1    3    3    0    0  0.11105940823E+02  0.42751534839E+02 -0.14032442250E+03  0.14711213139E+03  0.00000000000E+00 0. -1.
         22    1    4    4    0    0 -0.11186741841E+02 -0.34791553267E+02 -0.13635729742E+03  0.14116978406E+03  0.00000000000E+00 0. -1.
         22    1    4    4    0    0  0.80801017848E-01 -0.79599815712E+01 -0.28455606544E+02  0.29548085880E+02  0.00000000000E+00 0. -1.
<mgrwt>
<rscale>  0 0.88921998E+02</rscale>
<asrwt>0</asrwt>
<pdfrwt beam="2">  1        1 0.47920552E-01 0.88921998E+02</pdfrwt>
<pdfrwt beam="1">  1       -1 0.97635985E-03 0.88921998E+02</pdfrwt>
<totfact> 0.13791975E+05</totfact>
</mgrwt>
</event>
<event>
 7    1  0.3565607E-009  0.8362594E+02  0.7818608E-02  0.1319065E+00
         -1   -1    0    0    0  501 -0.00000000000E+00  0.00000000000E+00  0.35221758158E+03  0.35221758162E+03  0.50400000000E-02 0. -1.
          1   -1    0    0  501    0  0.00000000000E+00 -0.00000000000E+00 -0.49637617786E+01  0.49637643373E+01  0.50400000000E-02 0.  1.
         23    2    1    2    0    0  0.17763568394E-14  0.00000000000E+00  0.34725381980E+03  0.35718134595E+03  0.83625944123E+02 0.  0.
    9000005    2    3    3    0    0 -0.10918485585E+02 -0.34368767695E+02  0.26212457296E+03  0.26472911943E+03  0.84728629862E+01 0.  0.
         22    1    3    3    0    0  0.10918485585E+02  0.34368767695E+02  0.85129246844E+02  0.92452226520E+02  0.00000000000E+00 0.  1.
         22    1    4    4    0    0 -0.10267509690E+02 -0.19955770324E+02  0.14679344009E+03  0.14849905245E+03  0.00000000000E+00 0.  1.
         22    1    4    4    0    0 -0.65097589555E+00 -0.14412997371E+02  0.11533113287E+03  0.11623006699E+03  0.00000000000E+00 0.  1.
<mgrwt>
<rscale>  0 0.83625944E+02</rscale>
<asrwt>0</asrwt>
<pdfrwt beam="2">  1        1 0.76365590E-03 0.83625944E+02</pdfrwt>
<pdfrwt beam="1">  1       -1 0.54187318E-01 0.83625944E+02</pdfrwt>
<totfact> 0.70950494E+04</totfact>
</mgrwt>
</event>
<event>
 7    1  0.3565607E-009  0.9573346E+02  0.7818608E-02  0.1289533E+00
          1   -1    0    0  501    0  0.00000000000E+00  0.00000000000E+00  0.30544370643E+03  0.30544370647E+03  0.50400000000E-02 0. -1.
         -1   -1    0    0    0  501 -0.00000000000E+00 -0.00000000000E+00 -0.75012949835E+01  0.75012966766E+01  0.50400000000E-02 0.  1.
         23    2    1    2    0    0  0.88817841970E-15  0.35527136788E-14  0.29794241145E+03  0.31294500315E+03  0.95733455265E+02 0.  0.
    9000005    2    3    3    0    0 -0.43521225967E+01 -0.26578955627E+02  0.27797808120E+03  0.27941954513E+03  0.88366689283E+01 0.  0.
         22    1    3    3    0    0  0.43521225967E+01  0.26578955627E+02  0.19964330245E+02  0.33525458020E+02  0.00000000000E+00 0.  1.
         22    1    4    4    0    0 -0.11753039712E+01 -0.20385096844E+02  0.23454960508E+03  0.23543672346E+03  0.00000000000E+00 0.  1.
         22    1    4    4    0    0 -0.31768186255E+01 -0.61938587831E+01  0.43428476125E+02  0.43982821666E+02  0.00000000000E+00 0.  1.
<mgrwt>
<rscale>  0 0.95733455E+02</rscale>
<asrwt>0</asrwt>
<pdfrwt beam="1">  1        1 0.46991327E-01 0.95733455E+02</pdfrwt>
<pdfrwt beam="2">  1       -1 0.11540458E-02 0.95733455E+02</pdfrwt>
<totfact> 0.11285399E+05</totfact>
</mgrwt>
</event>
<event>
 7    1  0.3565607E-009  0.9099451E+02  0.7818608E-02  0.1300461E+00
          1   -1    0    0  501    0  0.00000000000E+00  0.00000000000E+00  0.62278340735E+03  0.62278340737E+03  0.50400000000E-02 0. -1.
         -1   -1    0    0    0  501 -0.00000000000E+00 -0.00000000000E+00 -0.33237866380E+01  0.33237904591E+01  0.50400000000E-02 0.  1.
         23    2    1    2    0    0  0.00000000000E+00 -0.35527136788E-14  0.61945962071E+03  0.62610719783E+03  0.90994513468E+02 0.  0.
    9000005    2    3    3    0    0  0.49490696800E+01  0.28762804744E+02  0.54874791118E+03  0.54960923647E+03  0.97082727387E+01 0.  0.
         22    1    3    3    0    0 -0.49490696800E+01 -0.28762804744E+02  0.70711709532E+02  0.76497961361E+02  0.00000000000E+00 0.  1.
         22    1    4    4    0    0 -0.98673446555E+00  0.90729038204E+01  0.24245592208E+03  0.24262762699E+03  0.00000000000E+00 0.  1.
         22    1    4    4    0    0  0.59358041456E+01  0.19689900924E+02  0.30629198910E+03  0.30698160948E+03  0.00000000000E+00 0.  1.
<mgrwt>
<rscale>  0 0.90994513E+02</rscale>
<asrwt>0</asrwt>
<pdfrwt beam="1">  1        1 0.95812762E-01 0.90994513E+02</pdfrwt>
<pdfrwt beam="2">  1       -1 0.51135246E-03 0.90994513E+02</pdfrwt>
<totfact> 0.14261774E+05</totfact>
</mgrwt>
</event>
<event>
 7    1  0.5246118E-009  0.9050588E+02  0.7818608E-02  0.1301631E+00
         -1   -1    0    0    0  501 -0.00000000000E+00  0.00000000000E+00  0.64199638087E+01  0.64199657870E+01  0.50400000000E-02 0.  1.
          1   -1    0    0  501    0  0.00000000000E+00 -0.00000000000E+00 -0.31897813127E+03  0.31897813131E+03  0.50400000000E-02 0. -1.
         23    2    1    2    0    0  0.00000000000E+00  0.00000000000E+00 -0.31255816746E+03  0.32539809710E+03  0.90505875762E+02 0.  0.
    9000005    2    3    3    0    0  0.39828678955E+02  0.19547422032E+02 -0.15176671996E+03  0.15859787238E+03  0.12317567180E+02 0.  0.
         22    1    3    3    0    0 -0.39828678955E+02 -0.19547422032E+02 -0.16079144750E+03  0.16680022472E+03  0.00000000000E+00 0.  1.
         22    1    4    4    0    0 -0.50019929277E+00  0.18840383814E+01 -0.48868744166E+01  0.52613060659E+01  0.00000000000E+00 0. -1.
         22    1    4    4    0    0  0.40328878248E+02  0.17663383650E+02 -0.14687984554E+03  0.15333656631E+03  0.00000000000E+00 0. -1.
<mgrwt>
<rscale>  0 0.90505876E+02</rscale>
<asrwt>0</asrwt>
<pdfrwt beam="2">  1        1 0.49073546E-01 0.90505876E+02</pdfrwt>
<pdfrwt beam="1">  1       -1 0.98768715E-03 0.90505876E+02</pdfrwt>
<totfact> 0.13218615E+05</totfact>
</mgrwt>
</event>
<event>
 7    1  0.3565607E-009  0.9486079E+02  0.7818608E-02  0.1291490E+00
          1   -1    0    0  501    0  0.00000000000E+00  0.00000000000E+00  0.15886911928E+03  0.15886911936E+03  0.50400000000E-02 0. -1.
         -1   -1    0    0    0  501 -0.00000000000E+00 -0.00000000000E+00 -0.14160349222E+02  0.14160350119E+02  0.50400000000E-02 0.  1.
         23    2    1    2    0    0 -0.44408920985E-15  0.00000000000E+00  0.14470877006E+03  0.17302946948E+03  0.94860788405E+02 0.  0.
    9000005    2    3    3    0    0  0.24951845918E+01 -0.44392934883E+02  0.99700791945E+02  0.10976275859E+03  0.11430513727E+02 0.  0.
         22    1    3    3    0    0 -0.24951845918E+01  0.44392934883E+02  0.45007978114E+02  0.63266710896E+02  0.00000000000E+00 0. -1.
         22    1    4    4    0    0  0.44008816396E+01 -0.41810257036E+02  0.96350097017E+02  0.10512281649E+03  0.00000000000E+00 0.  1.
         22    1    4    4    0    0 -0.19056970478E+01 -0.25826778474E+01  0.33506949281E+01  0.46399420905E+01  0.00000000000E+00 0.  1.
<mgrwt>
<rscale>  0 0.94860788E+02</rscale>
<asrwt>0</asrwt>
<pdfrwt beam="1">  1        1 0.24441402E-01 0.94860788E+02</pdfrwt>
<pdfrwt beam="2">  1       -1 0.21785154E-02 0.94860788E+02</pdfrwt>
<totfact> 0.10182523E+05</totfact>
</mgrwt>
</event>
<event>
 7    1  0.3565607E-009  0.9372502E+02  0.7818608E-02  0.1294074E+00
          1   -1    0    0  501    0  0.00000000000E+00  0.00000000000E+00  0.67981448250E+02  0.67981448437E+02  0.50400000000E-02 0. -1.
         -1   -1    0    0    0  501 -0.00000000000E+00 -0.00000000000E+00 -0.32304324603E+02  0.32304324996E+02  0.50400000000E-02 0.  1.
         23    2    1    2    0    0  0.00000000000E+00  0.00000000000E+00  0.35677123648E+02  0.10028577343E+03  0.93725019078E+02 0.  0.
    9000005    2    3    3    0    0 -0.14446598480E+02  0.28750105235E+02  0.53439057493E+02  0.63533099345E+02  0.12060227527E+02 0.  0.
         22    1    3    3    0    0  0.14446598480E+02 -0.28750105235E+02 -0.17761933845E+02  0.36752674088E+02  0.00000000000E+00 0.  1.
         22    1    4    4    0    0 -0.14839915727E+02  0.26821794317E+02  0.53390583594E+02  0.61564487861E+02  0.00000000000E+00 0. -1.
         22    1    4    4    0    0  0.39331724715E+00  0.19283109182E+01  0.48473898959E-01  0.19686114835E+01  0.00000000000E+00 0. -1.
<mgrwt>
<rscale>  0 0.93725019E+02</rscale>
<asrwt>0</asrwt>
<pdfrwt beam="1">  1        1 0.10458684E-01 0.93725019E+02</pdfrwt>
<pdfrwt beam="2">  1       -1 0.49698961E-02 0.93725019E+02</pdfrwt>
<totfact> 0.91005802E+04</totfact>
</mgrwt>
</event>
<event>
 7    1  0.3565607E-009  0.8878780E+02  0.7818608E-02  0.1305814E+00
         -1   -1    0    0    0  501 -0.00000000000E+00  0.00000000000E+00  0.16483009479E+01  0.16483086532E+01  0.50400000000E-02 0.  1.
          1   -1    0    0  501    0  0.00000000000E+00 -0.00000000000E+00 -0.11956638675E+04  0.11956638675E+04  0.50400000000E-02 0. -1.
         23    2    1    2    0    0  0.17763568394E-14  0.00000000000E+00 -0.11940155665E+04  0.11973121761E+04  0.88787803336E+02 0.  0.
    9000005    2    3    3    0    0  0.14697973834E+02 -0.15142618415E+02 -0.11222245924E+04  0.11224838841E+04  0.11692086633E+02 0.  0.
         22    1    3    3    0    0 -0.14697973834E+02  0.15142618415E+02 -0.71790974125E+02  0.74828292063E+02  0.00000000000E+00 0.  1.
         22    1    4    4    0    0  0.11425105539E+02 -0.35295756335E+01 -0.61019618847E+03  0.61031334523E+03  0.00000000000E+00 0.  1.
         22    1    4    4    0    0  0.32728682955E+01 -0.11613042782E+02 -0.51202840393E+03  0.51217053884E+03  0.00000000000E+00 0.  1.
<mgrwt>
<rscale>  0 0.88787803E+02</rscale>
<asrwt>0</asrwt>
<pdfrwt beam="2">  1        1 0.18394759E+00 0.88787803E+02</pdfrwt>
<pdfrwt beam="1">  1       -1 0.25358631E-03 0.88787803E+02</pdfrwt>
<totfact> 0.13678424E+05</totfact>
</mgrwt>
</event>
<event>
 7    1  0.3565607E-009  0.9351348E+02  0.7818608E-02  0.1294560E+00
         -1   -1    0    0    0  501 -0.00000000000E+00  0.00000000000E+00  0.63189863485E+03  0.63189863487E+03  0.50400000000E-02 0.  1.
          1   -1    0    0  501    0  0.00000000000E+00 -0.00000000000E+00 -0.34597185055E+01  0.34597221765E+01  0.50400000000E-02 0. -1.
         23    2    1    2    0    0  0.00000000000E+00  0.00000000000E+00  0.62843891634E+03  0.63535835704E+03  0.93513476529E+02 0.  0.
    9000005    2    3    3    0    0  0.14628112899E+02 -0.22922891847E+02  0.57217141340E+03  0.57286457700E+03  0.73659082603E+01 0.  0.
         22    1    3    3    0    0 -0.14628112899E+02  0.22922891847E+02  0.56267502938E+02  0.62493780046E+02  0.00000000000E+00 0. -1.
         22    1    4    4    0    0  0.51234756717E+01 -0.65343339563E+01  0.11420255433E+03  0.11450402150E+03  0.00000000000E+00 0. -1.
         22    1    4    4    0    0  0.95046372275E+01 -0.16388557890E+02  0.45796885907E+03  0.45836055550E+03  0.00000000000E+00 0. -1.
<mgrwt>
<rscale>  0 0.93513477E+02</rscale>
<asrwt>0</asrwt>
<pdfrwt beam="2">  1        1 0.53226505E-03 0.93513477E+02</pdfrwt>
<pdfrwt beam="1">  1       -1 0.97215105E-01 0.93513477E+02</pdfrwt>
<totfact> 0.37454289E+04</totfact>
</mgrwt>
</event>
<event>
 7    1  0.3565607E-009  0.9036008E+02  0.7818608E-02  0.1301982E+00
          1   -1    0    0  501    0  0.00000000000E+00  0.00000000000E+00  0.15589732390E+03  0.15589732398E+03  0.50400000000E-02 0. -1.
         -1   -1    0    0    0  501 -0.00000000000E+00 -0.00000000000E+00 -0.13093463899E+02  0.13093464869E+02  0.50400000000E-02 0.  1.
         23    2    1    2    0    0  0.00000000000E+00  0.00000000000E+00  0.14280386000E+03  0.16899078885E+03  0.90360081260E+02 0.  0.
    9000005    2    3    3    0    0 -0.38341297018E+02 -0.23307676145E+02  0.68525757524E+02  0.82212108682E+02  0.70532648783E+01 0.  0.
         22    1    3    3    0    0  0.38341297018E+02  0.23307676145E+02  0.74278102479E+02  0.86778680171E+02  0.00000000000E+00 0.  1.
         22    1    4    4    0    0 -0.13682988976E+02 -0.12082092957E+02  0.25309017201E+02  0.31204927643E+02  0.00000000000E+00 0.  1.
         22    1    4    4    0    0 -0.24658308042E+02 -0.11225583188E+02  0.43216740323E+02  0.51007181039E+02  0.00000000000E+00 0.  1.
<mgrwt>
<rscale>  0 0.90360081E+02</rscale>
<asrwt>0</asrwt>
<pdfrwt beam="1">  1        1 0.23984203E-01 0.90360081E+02</pdfrwt>
<pdfrwt beam="2">  1       -1 0.20143792E-02 0.90360081E+02</pdfrwt>
<totfact> 0.11570342E+05</totfact>
</mgrwt>
</event>
<event>
 7    1  0.3565607E-009  0.9105310E+02  0.7818608E-02  0.1300321E+00
         -1   -1    0    0    0  501 -0.00000000000E+00  0.00000000000E+00  0.47646674277E+02  0.47646674543E+02  0.50400000000E-02 0.  1.
          1   -1    0    0  501    0  0.00000000000E+00 -0.00000000000E+00 -0.43500764338E+02  0.43500764630E+02  0.50400000000E-02 0. -1.
         23    2    1    2    0    0  0.00000000000E+00  0.00000000000E+00  0.41459099386E+01  0.91147439173E+02  0.91053100434E+02 0.  0.
    9000005    2    3    3    0    0  0.12251698478E+02  0.33411531451E+02 -0.26273537898E+02  0.44331017308E+02  0.29164623106E+01 0.  0.
         22    1    3    3    0    0 -0.12251698478E+02 -0.33411531451E+02  0.30419447837E+02  0.46816421865E+02  0.00000000000E+00 0.  1.
         22    1    4    4    0    0  0.12405935976E+02  0.33207956102E+02 -0.26052999241E+02  0.43993571864E+02  0.00000000000E+00 0. -1.
         22    1    4    4    0    0 -0.15423749805E+00  0.20357534909E+00 -0.22053865692E+00  0.33744544412E+00  0.00000000000E+00 0. -1.
<mgrwt>
<rscale>  0 0.91053100E+02</rscale>
<asrwt>0</asrwt>
<pdfrwt beam="2">  1        1 0.66924254E-02 0.91053100E+02</pdfrwt>
<pdfrwt beam="1">  1       -1 0.73302576E-02 0.91053100E+02</pdfrwt>
<totfact> 0.92173805E+04</totfact>
</mgrwt>
</event>
<event>
 7    1  0.3565607E-009  0.9246798E+02  0.7818608E-02  0.1296983E+00
         -1   -1    0    0    0  501 -0.00000000000E+00  0.00000000000E+00  0.21275058825E+02  0.21275059422E+02  0.50400000000E-02 0.  1.
          1   -1    0    0  501    0  0.00000000000E+00 -0.00000000000E+00 -0.10047360194E+03  0.10047360206E+03  0.50400000000E-02 0. -1.
         23    2    1    2    0    0  0.00000000000E+00  0.00000000000E+00 -0.79198543114E+02  0.12174866149E+03  0.92467980093E+02 0.  0.
    9000005    2    3    3    0    0  0.26619141241E+02 -0.34565443405E+02 -0.55793662107E+02  0.72239702569E+02  0.14222986247E+02 0.  0.
         22    1    3    3    0    0 -0.26619141241E+02  0.34565443405E+02 -0.23404881007E+02  0.49508958918E+02  0.00000000000E+00 0.  1.
         22    1    4    4    0    0  0.62417089466E+00 -0.28576082689E+01  0.91979071528E-01  0.29264269125E+01  0.00000000000E+00 0.  1.
         22    1    4    4    0    0  0.25994970346E+02 -0.31707835136E+02 -0.55885641179E+02  0.69313275657E+02  0.00000000000E+00 0.  1.
<mgrwt>
<rscale>  0 0.92467980E+02</rscale>
<asrwt>0</asrwt>
<pdfrwt beam="2">  1        1 0.15457477E-01 0.92467980E+02</pdfrwt>
<pdfrwt beam="1">  1       -1 0.32730861E-02 0.92467980E+02</pdfrwt>
<totfact> 0.10059610E+05</totfact>
</mgrwt>
</event>
<event>
 7    1  0.3565607E-009  0.1225913E+03  0.7818608E-02  0.1238882E+00
          1   -1    0    0  501    0  0.00000000000E+00  0.00000000000E+00  0.42527449927E+02  0.42527450225E+02  0.50400000000E-02 0. -1.
         -1   -1    0    0    0  501 -0.00000000000E+00 -0.00000000000E+00 -0.88346627514E+02  0.88346627658E+02  0.50400000000E-02 0.  1.
         23    2    1    2    0    0  0.00000000000E+00 -0.71054273576E-14 -0.45819177588E+02  0.13087407788E+03  0.12259130160E+03 0.  0.
    9000005    2    3    3    0    0  0.39235548639E+02 -0.43432992748E+02 -0.40992356574E+02  0.72144602003E+02  0.99306175309E+01 0.  0.
         22    1    3    3    0    0 -0.39235548639E+02  0.43432992748E+02 -0.48268210133E+01  0.58729475881E+02  0.00000000000E+00 0. -1.
         22    1    4    4    0    0  0.34434230738E+02 -0.41192473463E+02 -0.34736548349E+02  0.63946570726E+02  0.00000000000E+00 0. -1.
         22    1    4    4    0    0  0.48013179018E+01 -0.22405192859E+01 -0.62558082248E+01  0.81980312765E+01  0.00000000000E+00 0. -1.
<mgrwt>
<rscale>  0 0.12259130E+03</rscale>
<asrwt>0</asrwt>
<pdfrwt beam="1">  1        1 0.65426847E-02 0.12259130E+03</pdfrwt>
<pdfrwt beam="2">  1       -1 0.13591789E-01 0.12259130E+03</pdfrwt>
<totfact> 0.38839362E+04</totfact>
</mgrwt>
</event>
<event>
 7    1  0.3565607E-009  0.9159191E+02  0.7818608E-02  0.1299042E+00
         -1   -1    0    0    0  501 -0.00000000000E+00  0.00000000000E+00  0.32953240946E+01  0.32953279488E+01  0.50400000000E-02 0.  1.
          1   -1    0    0  501    0  0.00000000000E+00 -0.00000000000E+00 -0.63643762797E+03  0.63643762799E+03  0.50400000000E-02 0. -1.
         23    2    1    2    0    0  0.00000000000E+00  0.00000000000E+00 -0.63314230387E+03  0.63973295594E+03  0.91591909891E+02 0.  0.
    9000005    2    3    3    0    0  0.21053867546E+02  0.38189556691E+02 -0.40389960185E+03  0.40637931013E+03  0.10370523166E+02 0.  0.
         22    1    3    3    0    0 -0.21053867546E+02 -0.38189556691E+02 -0.22924270202E+03  0.23335364580E+03  0.00000000000E+00 0. -1.
         22    1    4    4    0    0  0.13531195969E+02  0.17632905173E+02 -0.23942334950E+03  0.24045280804E+03  0.00000000000E+00 0. -1.
         22    1    4    4    0    0  0.75226715763E+01  0.20556651518E+02 -0.16447625235E+03  0.16592650210E+03  0.00000000000E+00 0. -1.
<mgrwt>
<rscale>  0 0.91591910E+02</rscale>
<asrwt>0</asrwt>
<pdfrwt beam="2">  1        1 0.97913384E-01 0.91591910E+02</pdfrwt>
<pdfrwt beam="1">  1       -1 0.50697374E-03 0.91591910E+02</pdfrwt>
<totfact> 0.14029171E+05</totfact>
</mgrwt>
</event>
<event>
 7    1  0.3565607E-009  0.9095955E+02  0.7818608E-02  0.1300545E+00
          1   -1    0    0  501    0  0.00000000000E+00  0.00000000000E+00  0.49564488716E+03  0.49564488719E+03  0.50400000000E-02 0. -1.
         -1   -1    0    0    0  501 -0.00000000000E+00 -0.00000000000E+00 -0.41731671102E+01  0.41731701536E+01  0.50400000000E-02 0.  1.
         23    2    1    2    0    0  0.35527136788E-14  0.00000000000E+00  0.49147172005E+03  0.49981805734E+03  0.90959545039E+02 0.  0.
    9000005    2    3    3    0    0 -0.29406432549E+02  0.29993204216E+02  0.33289424615E+03  0.33577188761E+03  0.12643212217E+02 0.  0.
         22    1    3    3    0    0  0.29406432549E+02 -0.29993204216E+02  0.15857747390E+03  0.16404616973E+03  0.00000000000E+00 0.  1.
         22    1    4    4    0    0 -0.22642828114E+02  0.14625075415E+02  0.19286482883E+03  0.19473939687E+03  0.00000000000E+00 0. -1.
         22    1    4    4    0    0 -0.67636044346E+01  0.15368128801E+02  0.14002941732E+03  0.14103249073E+03  0.00000000000E+00 0. -1.
<mgrwt>
<rscale>  0 0.90959545E+02</rscale>
<asrwt>0</asrwt>
<pdfrwt beam="1">  1        1 0.76253062E-01 0.90959545E+02</pdfrwt>
<pdfrwt beam="2">  1       -1 0.64202593E-03 0.90959545E+02</pdfrwt>
<totfact> 0.14000249E+05</totfact>
</mgrwt>
</event>
<event>
 7    1  0.3565607E-009  0.9167676E+02  0.7818608E-02  0.1298841E+00
          1   -1    0    0  501    0  0.00000000000E+00  0.00000000000E+00  0.11301835257E+03  0.11301835268E+03  0.50400000000E-02 0. -1.
         -1   -1    0    0    0  501 -0.00000000000E+00 -0.00000000000E+00 -0.18591291520E+02  0.18591292203E+02  0.50400000000E-02 0.  1.
         23    2    1    2    0    0  0.00000000000E+00 -0.35527136788E-14  0.94427061051E+02  0.13160964489E+03  0.91676762424E+02 0.  0.
    9000005    2    3    3    0    0  0.18400764921E+02 -0.24196773480E+02  0.95721686404E+02  0.10118353683E+03  0.12304262733E+02 0.  0.
         22    1    3    3    0    0 -0.18400764921E+02  0.24196773480E+02 -0.12946253532E+01  0.30426108054E+02  0.00000000000E+00 0.  1.
         22    1    4    4    0    0  0.11863794927E+02 -0.13943612894E+02  0.74581804275E+02  0.76795960177E+02  0.00000000000E+00 0. -1.
         22    1    4    4    0    0  0.65369699940E+01 -0.10253160585E+02  0.21139882129E+02  0.24387576655E+02  0.00000000000E+00 0. -1.
<mgrwt>
<rscale>  0 0.91676762E+02</rscale>
<asrwt>0</asrwt>
<pdfrwt beam="1">  1        1 0.17387439E-01 0.91676762E+02</pdfrwt>
<pdfrwt beam="2">  1       -1 0.28601988E-02 0.91676762E+02</pdfrwt>
<totfact> 0.10505685E+05</totfact>
</mgrwt>
</event>
<event>
 7    1  0.3565607E-009  0.1010278E+03  0.7818608E-02  0.1278149E+00
         -1   -1    0    0    0  501 -0.00000000000E+00  0.00000000000E+00  0.65346054524E+01  0.65346073960E+01  0.50400000000E-02 0.  1.
          1   -1    0    0  501    0  0.00000000000E+00 -0.00000000000E+00 -0.39048316728E+03  0.39048316732E+03  0.50400000000E-02 0. -1.
         23    2    1    2    0    0  0.71054273576E-14  0.00000000000E+00 -0.38394856183E+03  0.39701777471E+03  0.10102779472E+03 0.  0.
    9000005    2    3    3    0    0 -0.39054556321E+02 -0.29340031636E+02 -0.16902590654E+03  0.17661395536E+03  0.15382988062E+02 0.  0.
         22    1    3    3    0    0  0.39054556321E+02  0.29340031636E+02 -0.21492265529E+03  0.22040381935E+03  0.00000000000E+00 0.  1.
         22    1    4    4    0    0 -0.40300102485E+01  0.96252301508E+00 -0.24523305313E+02  0.24870865216E+02  0.00000000000E+00 0. -1.
         22    1    4    4    0    0 -0.35024546073E+02 -0.30302554651E+02 -0.14450260123E+03  0.15174309015E+03  0.00000000000E+00 0. -1.
<mgrwt>
<rscale>  0 0.10102779E+03</rscale>
<asrwt>0</asrwt>
<pdfrwt beam="2">  1        1 0.60074315E-01 0.10102779E+03</pdfrwt>
<pdfrwt beam="1">  1       -1 0.10053244E-02 0.10102779E+03</pdfrwt>
<totfact> 0.10215598E+05</totfact>
</mgrwt>
</event>
<event>
 7    1  0.3565607E-009  0.8910151E+02  0.7818608E-02  0.1305042E+00
          1   -1    0    0  501    0  0.00000000000E+00  0.00000000000E+00  0.51295006570E+02  0.51295006818E+02  0.50400000000E-02 0. -1.
         -1   -1    0    0    0  501 -0.00000000000E+00 -0.00000000000E+00 -0.38693232861E+02  0.38693233189E+02  0.50400000000E-02 0.  1.
         23    2    1    2    0    0  0.00000000000E+00 -0.17763568394E-14  0.12601773709E+02  0.89988240007E+02  0.89101507501E+02 0.  0.
    9000005    2    3    3    0    0 -0.17028433547E+02 -0.12537192862E+02  0.45610852152E+02  0.50786862308E+02  0.71976937389E+01 0.  0.
         22    1    3    3    0    0  0.17028433547E+02  0.12537192862E+02 -0.33009078442E+02  0.39201377699E+02  0.00000000000E+00 0.  1.
         22    1    4    4    0    0 -0.93527766905E+01 -0.10150509079E+02  0.33704620875E+02  0.36421267615E+02  0.00000000000E+00 0. -1.
         22    1    4    4    0    0 -0.76756568561E+01 -0.23866837829E+01  0.11906231277E+02  0.14365594693E+02  0.00000000000E+00 0. -1.
<mgrwt>
<rscale>  0 0.89101508E+02</rscale>
<asrwt>0</asrwt>
<pdfrwt beam="1">  1        1 0.78915395E-02 0.89101508E+02</pdfrwt>
<pdfrwt beam="2">  1       -1 0.59528051E-02 0.89101508E+02</pdfrwt>
<totfact> 0.10035651E+05</totfact>
</mgrwt>
</event>
<event>
 7    1  0.3565607E-009  0.8439794E+02  0.7818608E-02  0.1317015E+00
         -1   -1    0    0    0  501 -0.00000000000E+00  0.00000000000E+00  0.22406977349E+01  0.22407034031E+01  0.50400000000E-02 0.  1.
          1   -1    0    0  501    0  0.00000000000E+00 -0.00000000000E+00 -0.79473054030E+03  0.79473054032E+03  0.50400000000E-02 0. -1.
         23    2    1    2    0    0  0.00000000000E+00  0.00000000000E+00 -0.79248984257E+03  0.79697124372E+03  0.84397942785E+02 0.  0.
    9000005    2    3    3    0    0  0.91204981608E+01 -0.34221645630E+02 -0.60986810554E+03  0.61094704274E+03  0.79295876202E+01 0.  0.
         22    1    3    3    0    0 -0.91204981608E+01  0.34221645630E+02 -0.18262173703E+03  0.18602420098E+03  0.00000000000E+00 0.  1.
         22    1    4    4    0    0  0.88004906237E+01 -0.31483988261E+02 -0.58765543322E+03  0.58856401381E+03  0.00000000000E+00 0.  1.
         22    1    4    4    0    0  0.32000753712E+00 -0.27376573694E+01 -0.22212672318E+02  0.22383028932E+02  0.00000000000E+00 0.  1.
<mgrwt>
<rscale>  0 0.84397943E+02</rscale>
<asrwt>0</asrwt>
<pdfrwt beam="2">  1        1 0.12226601E+00 0.84397943E+02</pdfrwt>
<pdfrwt beam="1">  1       -1 0.34472380E-03 0.84397943E+02</pdfrwt>
<totfact> 0.17328282E+05</totfact>
</mgrwt>
</event>
<event>
 6    1  0.3565607E-009  0.1884388E+03  0.7818608E-02  0.1159877E+00
          1   -1    0    0  501    0  0.00000000000E+00  0.00000000000E+00  0.12156753974E+02  0.12156755018E+02  0.50400000000E-02 0. -1.
         -1   -1    0    0    0  501 -0.00000000000E+00 -0.00000000000E+00 -0.73023595221E+03  0.73023595223E+03  0.50400000000E-02 0.  1.
    9000005    2    1    2    0    0  0.41639736349E+02  0.43664612812E+02 -0.64406350717E+03  0.64690035897E+03  0.46698085279E+01 0.  0.
         22    1    1    2    0    0 -0.41639736349E+02 -0.43664612812E+02 -0.74015691065E+02  0.95492348275E+02  0.00000000000E+00 0. -1.
         22    1    3    3    0    0  0.39902016254E+02  0.40220308809E+02 -0.60464617491E+03  0.60729469038E+03  0.00000000000E+00 0.  1.
         22    1    3    3    0    0  0.17377200941E+01  0.34443040029E+01 -0.39417332270E+02  0.39605668590E+02  0.00000000000E+00 0.  1.
<mgrwt>
<rscale>  0 0.18843884E+03</rscale>
<asrwt>0</asrwt>
<pdfrwt beam="1">  1        1 0.18702705E-02 0.18843884E+03</pdfrwt>
<pdfrwt beam="2">  1       -1 0.11234396E+00 0.18843884E+03</pdfrwt>
<totfact> 0.50213647E+03</totfact>
</mgrwt>
</event>
<event>
 7    1  0.3565607E-009  0.9005547E+02  0.7818608E-02  0.1302717E+00
         -1   -1    0    0    0  501 -0.00000000000E+00  0.00000000000E+00  0.10511879917E+03  0.10511879929E+03  0.50400000000E-02 0.  1.
          1   -1    0    0  501    0  0.00000000000E+00 -0.00000000000E+00 -0.19287670061E+02  0.19287670720E+02  0.50400000000E-02 0. -1.
         23    2    1    2    0    0  0.00000000000E+00  0.00000000000E+00  0.85831129113E+02  0.12440647001E+03  0.90055466556E+02 0.  0.
    9000005    2    3    3    0    0  0.25763797068E+02  0.25579790665E+02  0.77723786587E+02  0.87206632210E+02  0.15681542342E+02 0.  0.
         22    1    3    3    0    0 -0.25763797068E+02 -0.25579790665E+02  0.81073425260E+01  0.37199837804E+02  0.00000000000E+00 0. -1.
         22    1    4    4    0    0  0.15202843793E+02  0.13575759560E+02  0.59849703047E+02  0.63225111007E+02  0.00000000000E+00 0.  1.
         22    1    4    4    0    0  0.10560953275E+02  0.12004031104E+02  0.17874083540E+02  0.23981521203E+02  0.00000000000E+00 0.  1.
<mgrwt>
<rscale>  0 0.90055467E+02</rscale>
<asrwt>0</asrwt>
<pdfrwt beam="2">  1        1 0.29673340E-02 0.90055467E+02</pdfrwt>
<pdfrwt beam="1">  1       -1 0.16172123E-01 0.90055467E+02</pdfrwt>
<totfact> 0.83220267E+04</totfact>
</mgrwt>
</event>
<event>
 7    1  0.3565607E-009  0.8883472E+02  0.7818608E-02  0.1305698E+00
          1   -1    0    0  501    0  0.00000000000E+00  0.00000000000E+00  0.14274019477E+04  0.14274019477E+04  0.50400000000E-02 0. -1.
         -1   -1    0    0    0  501 -0.00000000000E+00 -0.00000000000E+00 -0.13821582115E+01  0.13821674006E+01  0.50400000000E-02 0.  1.
         23    2    1    2    0    0  0.00000000000E+00  0.35527136788E-14  0.14260197895E+04  0.14287841151E+04  0.88834720558E+02 0.  0.
    9000005    2    3    3    0    0  0.84915021518E+01  0.26689981800E+02  0.12615163649E+04  0.12619133943E+04  0.14745007840E+02 0.  0.
         22    1    3    3    0    0 -0.84915021518E+01 -0.26689981800E+02  0.16450342465E+03  0.16687072079E+03  0.00000000000E+00 0.  1.
         22    1    4    4    0    0  0.12742600236E+02  0.20383377505E+02  0.97041491328E+03  0.97071260415E+03  0.00000000000E+00 0. -1.
         22    1    4    4    0    0 -0.42510980846E+01  0.63066042952E+01  0.29110145159E+03  0.29120079020E+03  0.00000000000E+00 0. -1.
<mgrwt>
<rscale>  0 0.88834721E+02</rscale>
<asrwt>0</asrwt>
<pdfrwt beam="1">  1        1 0.21959952E+00 0.88834721E+02</pdfrwt>
<pdfrwt beam="2">  1       -1 0.21264119E-03 0.88834721E+02</pdfrwt>
<totfact> 0.12301644E+05</totfact>
</mgrwt>
</event>
<event>
 7    1  0.3565607E-009  0.9383735E+02  0.7818608E-02  0.1293816E+00
         -1   -1    0    0    0  501 -0.00000000000E+00  0.00000000000E+00  0.13661356648E+03  0.13661356658E+03  0.50400000000E-02 0.  1.
          1   -1    0    0  501    0  0.00000000000E+00 -0.00000000000E+00 -0.16113789058E+02  0.16113789846E+02  0.50400000000E-02 0. -1.
         23    2    1    2    0    0  0.00000000000E+00  0.00000000000E+00  0.12049977743E+03  0.15272735642E+03  0.93837354184E+02 0.  0.
    9000005    2    3    3    0    0  0.61245043502E+01 -0.13482202818E+02  0.13268762685E+03  0.13354864375E+03  0.31550881397E+01 0.  0.
         22    1    3    3    0    0 -0.61245043502E+01  0.13482202818E+02 -0.12187849424E+02  0.19178712677E+02  0.00000000000E+00 0. -1.
         22    1    4    4    0    0  0.57068504207E+00 -0.17325975163E+01  0.92051255686E+01  0.93841308764E+01  0.00000000000E+00 0.  1.
         22    1    4    4    0    0  0.55538193082E+01 -0.11749605302E+02  0.12348250128E+03  0.12416451287E+03  0.00000000000E+00 0.  1.
<mgrwt>
<rscale>  0 0.93837354E+02</rscale>
<asrwt>0</asrwt>
<pdfrwt beam="2">  1        1 0.24790445E-02 0.93837354E+02</pdfrwt>
<pdfrwt beam="1">  1       -1 0.21017472E-01 0.93837354E+02</pdfrwt>
<totfact> 0.70900056E+04</totfact>
</mgrwt>
</event>
<event>
 7    1  0.3565607E-009  0.9342069E+02  0.7818608E-02  0.1294773E+00
         -1   -1    0    0    0  501 -0.00000000000E+00  0.00000000000E+00  0.60258595643E+02  0.60258595853E+02  0.50400000000E-02 0.  1.
          1   -1    0    0  501    0  0.00000000000E+00 -0.00000000000E+00 -0.36208220310E+02  0.36208220661E+02  0.50400000000E-02 0. -1.
         23    2    1    2    0    0  0.35527136788E-14  0.17763568394E-14  0.24050375333E+02  0.96466816514E+02  0.93420694360E+02 0.  0.
    9000005    2    3    3    0    0  0.29671729560E+02  0.12855136718E+02  0.46489348282E+02  0.57107274060E+02  0.73698827515E+01 0.  0.
         22    1    3    3    0    0 -0.29671729560E+02 -0.12855136718E+02 -0.22438972949E+02  0.39359542454E+02  0.00000000000E+00 0. -1.
         22    1    4    4    0    0  0.33650565062E+01  0.22310739590E+01  0.24568689917E+01  0.47262566099E+01  0.00000000000E+00 0.  1.
         22    1    4    4    0    0  0.26306673054E+02  0.10624062759E+02  0.44032479290E+02  0.52381017451E+02  0.00000000000E+00 0.  1.
<mgrwt>
<rscale>  0 0.93420694E+02</rscale>
<asrwt>0</asrwt>
<pdfrwt beam="2">  1        1 0.55704955E-02 0.93420694E+02</pdfrwt>
<pdfrwt beam="1">  1       -1 0.92705532E-02 0.93420694E+02</pdfrwt>
<totfact> 0.83317239E+04</totfact>
</mgrwt>
</event>
<event>
 7    1  0.3565607E-009  0.9143487E+02  0.7818608E-02  0.1299414E+00
          1   -1    0    0  501    0  0.00000000000E+00  0.00000000000E+00  0.16711293537E+02  0.16711294297E+02  0.50400000000E-02 0. -1.
         -1   -1    0    0    0  501 -0.00000000000E+00 -0.00000000000E+00 -0.12507012904E+03  0.12507012914E+03  0.50400000000E-02 0.  1.
         23    2    1    2    0    0  0.00000000000E+00  0.17763568394E-14 -0.10835883550E+03  0.14178142344E+03  0.91434866439E+02 0.  0.
    9000005    2    3    3    0    0  0.41750435013E+02 -0.15549228755E+02 -0.50790266972E+02  0.68987073236E+02  0.13953053999E+02 0.  0.
         22    1    3    3    0    0 -0.41750435013E+02  0.15549228755E+02 -0.57568568531E+02  0.72794350203E+02  0.00000000000E+00 0.  1.
         22    1    4    4    0    0  0.16530489992E+02 -0.49187132084E+01 -0.10217147362E+02  0.20045970648E+02  0.00000000000E+00 0. -1.
         22    1    4    4    0    0  0.25219945022E+02 -0.10630515546E+02 -0.40573119610E+02  0.48941102588E+02  0.00000000000E+00 0. -1.
<mgrwt>
<rscale>  0 0.91434866E+02</rscale>
<asrwt>0</asrwt>
<pdfrwt beam="1">  1        1 0.25709684E-02 0.91434866E+02</pdfrwt>
<pdfrwt beam="2">  1       -1 0.19241558E-01 0.91434866E+02</pdfrwt>
<totfact> 0.77292682E+04</totfact>
</mgrwt>
</event>
<event>
 7    1  0.3565607E-009  0.9137025E+02  0.7818608E-02  0.1299567E+00
         -1   -1    0    0    0  501 -0.00000000000E+00  0.00000000000E+00  0.44418748869E+03  0.44418748872E+03  0.50400000000E-02 0.  1.
          1   -1    0    0  501    0  0.00000000000E+00 -0.00000000000E+00 -0.46987589778E+01  0.46987616808E+01  0.50400000000E-02 0. -1.
         23    2    1    2    0    0  0.00000000000E+00 -0.33306690739E-15  0.43948872971E+03  0.44888625040E+03  0.91370248186E+02 0.  0.
    9000005    2    3    3    0    0 -0.44073933688E+02  0.39111806326E+00  0.26318754201E+03  0.26715905544E+03  0.12791169920E+02 0.  0.
         22    1    3    3    0    0  0.44073933688E+02 -0.39111806326E+00  0.17630118770E+03  0.18172719496E+03  0.00000000000E+00 0. -1.
         22    1    4    4    0    0 -0.36710427883E+02  0.52154899507E+01  0.21505279679E+03  0.21822594314E+03  0.00000000000E+00 0.  1.
         22    1    4    4    0    0 -0.73635058056E+01 -0.48243718875E+01  0.48134745218E+02  0.48933112297E+02  0.00000000000E+00 0.  1.
<mgrwt>
<rscale>  0 0.91370248E+02</rscale>
<asrwt>0</asrwt>
<pdfrwt beam="2">  1        1 0.72288609E-03 0.91370248E+02</pdfrwt>
<pdfrwt beam="1">  1       -1 0.68336548E-01 0.91370248E+02</pdfrwt>
<totfact> 0.50135342E+04</totfact>
</mgrwt>
</event>
<event>
 7    1  0.3565607E-009  0.9166915E+02  0.7818608E-02  0.1298859E+00
         -1   -1    0    0    0  501 -0.00000000000E+00  0.00000000000E+00  0.10387539789E+02  0.10387541011E+02  0.50400000000E-02 0.  1.
          1   -1    0    0  501    0  0.00000000000E+00 -0.00000000000E+00 -0.20224310853E+03  0.20224310860E+03  0.50400000000E-02 0. -1.
         23    2    1    2    0    0  0.00000000000E+00 -0.17763568394E-14 -0.19185556875E+03  0.21263064961E+03  0.91669154541E+02 0.  0.
    9000005    2    3    3    0    0  0.41743892338E+02 -0.13165022318E+02 -0.12388732480E+03  0.13178788528E+03  0.10203288628E+02 0.  0.
         22    1    3    3    0    0 -0.41743892338E+02  0.13165022318E+02 -0.67968243944E+02  0.80842764333E+02  0.00000000000E+00 0.  1.
         22    1    4    4    0    0  0.32288312125E+02 -0.12499295101E+02 -0.85426989435E+02  0.92176667340E+02  0.00000000000E+00 0. -1.
         22    1    4    4    0    0  0.94555802127E+01 -0.66572721794E+00 -0.38460335366E+02  0.39611217936E+02  0.00000000000E+00 0. -1.
<mgrwt>
<rscale>  0 0.91669155E+02</rscale>
<asrwt>0</asrwt>
<pdfrwt beam="2">  1        1 0.31114322E-01 0.91669155E+02</pdfrwt>
<pdfrwt beam="1">  1       -1 0.15980833E-02 0.91669155E+02</pdfrwt>
<totfact> 0.11695967E+05</totfact>
</mgrwt>
</event>
<event>
 7    1  0.3565607E-009  0.9130173E+02  0.7818608E-02  0.1299730E+00
          1   -1    0    0  501    0  0.00000000000E+00  0.00000000000E+00  0.20819611060E+02  0.20819611670E+02  0.50400000000E-02 0. -1.
         -1   -1    0    0    0  501 -0.00000000000E+00 -0.00000000000E+00 -0.10009799620E+03  0.10009799633E+03  0.50400000000E-02 0.  1.
         23    2    1    2    0    0  0.00000000000E+00 -0.44408920985E-15 -0.79278385143E+02  0.12091760800E+03  0.91301728207E+02 0.  0.
    9000005    2    3    3    0    0 -0.25902846485E+02 -0.30338637567E+01  0.70304026034E+01  0.30754596584E+02  0.14705674585E+02 0.  0.
         22    1    3    3    0    0  0.25902846485E+02  0.30338637567E+01 -0.86308787746E+02  0.90163011415E+02  0.00000000000E+00 0. -1.
         22    1    4    4    0    0 -0.18841008940E+02  0.41490195943E+01  0.17235939566E+01  0.19369273543E+02  0.00000000000E+00 0.  1.
         22    1    4    4    0    0 -0.70618375449E+01 -0.71828833509E+01  0.53068086468E+01  0.11385323041E+02  0.00000000000E+00 0.  1.
<mgrwt>
<rscale>  0 0.91301728E+02</rscale>
<asrwt>0</asrwt>
<pdfrwt beam="1">  1        1 0.32030172E-02 0.91301728E+02</pdfrwt>
<pdfrwt beam="2">  1       -1 0.15399692E-01 0.91301728E+02</pdfrwt>
<totfact> 0.81069183E+04</totfact>
</mgrwt>
</event>
<event>
 7    1  0.3565607E-009  0.9029700E+02  0.7818608E-02  0.1302134E+00
         -1   -1    0    0    0  501 -0.00000000000E+00  0.00000000000E+00  0.51859744260E+01  0.51859768751E+01  0.50400000000E-02 0.  1.
          1   -1    0    0  501    0  0.00000000000E+00 -0.00000000000E+00 -0.39305757246E+03  0.39305757249E+03  0.50400000000E-02 0. -1.
         23    2    1    2    0    0  0.71054273576E-14  0.35527136788E-14 -0.38787159803E+03  0.39824354937E+03  0.90296999127E+02 0.  0.
    9000005    2    3    3    0    0 -0.35384073579E+02 -0.23103175444E+02 -0.25632042606E+03  0.26007155428E+03  0.12298908547E+02 0.  0.
         22    1    3    3    0    0  0.35384073579E+02  0.23103175444E+02 -0.13155117197E+03  0.13817199509E+03  0.00000000000E+00 0.  1.
         22    1    4    4    0    0 -0.13791308990E+02 -0.28911295903E+01 -0.98615200118E+02  0.99616848617E+02  0.00000000000E+00 0.  1.
         22    1    4    4    0    0 -0.21592764589E+02 -0.20212045854E+02 -0.15770522594E+03  0.16045470566E+03  0.00000000000E+00 0.  1.
<mgrwt>
<rscale>  0 0.90296999E+02</rscale>
<asrwt>0</asrwt>
<pdfrwt beam="2">  1        1 0.60470373E-01 0.90296999E+02</pdfrwt>
<pdfrwt beam="1">  1       -1 0.79784272E-03 0.90296999E+02</pdfrwt>
<totfact> 0.13800807E+05</totfact>
</mgrwt>
</event>
<event>
 7    1  0.3565607E-009  0.8952587E+02  0.7818608E-02  0.1304004E+00
          1   -1    0    0  501    0  0.00000000000E+00  0.00000000000E+00  0.27556334786E+02  0.27556335247E+02  0.50400000000E-02 0. -1.
         -1   -1    0    0    0  501 -0.00000000000E+00 -0.00000000000E+00 -0.72713603499E+02  0.72713603673E+02  0.50400000000E-02 0.  1.
         23    2    1    2    0    0  0.00000000000E+00  0.00000000000E+00 -0.45157268713E+02  0.10026993892E+03  0.89525871867E+02 0.  0.
    9000005    2    3    3    0    0  0.15813885506E+02 -0.40886421444E+02 -0.13470656806E+02  0.46179091197E+02  0.54103082832E+01 0.  0.
         22    1    3    3    0    0 -0.15813885506E+02  0.40886421444E+02 -0.31686611906E+02  0.54090847723E+02  0.00000000000E+00 0. -1.
         22    1    4    4    0    0  0.11041211340E+02 -0.21130484684E+02 -0.76237344075E+01  0.25030522510E+02  0.00000000000E+00 0.  1.
         22    1    4    4    0    0  0.47726741660E+01 -0.19755936760E+02 -0.58469223989E+01  0.21148568687E+02  0.00000000000E+00 0.  1.
<mgrwt>
<rscale>  0 0.89525872E+02</rscale>
<asrwt>0</asrwt>
<pdfrwt beam="1">  1        1 0.42394362E-02 0.89525872E+02</pdfrwt>
<pdfrwt beam="2">  1       -1 0.11186708E-01 0.89525872E+02</pdfrwt>
<totfact> 0.90107728E+04</totfact>
</mgrwt>
</event>
<event>
 7    1  0.3565607E-009  0.9064218E+02  0.7818608E-02  0.1301304E+00
         -1   -1    0    0    0  501 -0.00000000000E+00  0.00000000000E+00  0.15778670082E+02  0.15778670887E+02  0.50400000000E-02 0.  1.
          1   -1    0    0  501    0  0.00000000000E+00 -0.00000000000E+00 -0.13017579509E+03  0.13017579519E+03  0.50400000000E-02 0. -1.
         23    2    1    2    0    0 -0.35527136788E-14  0.71054273576E-14 -0.11439712501E+03  0.14595446608E+03  0.90642175377E+02 0.  0.
    9000005    2    3    3    0    0 -0.17022706495E+02 -0.38217950511E+02 -0.35270650387E+02  0.56448135216E+02  0.13856006386E+02 0.  0.
         22    1    3    3    0    0  0.17022706495E+02  0.38217950511E+02 -0.79126474624E+02  0.89506330860E+02  0.00000000000E+00 0. -1.
         22    1    4    4    0    0 -0.10417128669E+02 -0.30875766807E+02 -0.32869222755E+02  0.46284072316E+02  0.00000000000E+00 0.  1.
         22    1    4    4    0    0 -0.66055778269E+01 -0.73421837041E+01 -0.24014276321E+01  0.10164062900E+02  0.00000000000E+00 0.  1.
<mgrwt>
<rscale>  0 0.90642175E+02</rscale>
<asrwt>0</asrwt>
<pdfrwt beam="2">  1        1 0.20027045E-01 0.90642175E+02</pdfrwt>
<pdfrwt beam="1">  1       -1 0.24274879E-02 0.90642175E+02</pdfrwt>
<totfact> 0.11104576E+05</totfact>
</mgrwt>
</event>
<event>
 7    1  0.3565607E-009  0.9129377E+02  0.7818608E-02  0.1299749E+00
         -1   -1    0    0    0  501 -0.00000000000E+00  0.00000000000E+00  0.45692624848E+03  0.45692624850E+03  0.50400000000E-02 0.  1.
          1   -1    0    0  501    0  0.00000000000E+00 -0.00000000000E+00 -0.45601180691E+01  0.45601208543E+01  0.50400000000E-02 0. -1.
         23    2    1    2    0    0  0.00000000000E+00  0.00000000000E+00  0.45236613041E+03  0.46148636936E+03  0.91293773961E+02 0.  0.
    9000005    2    3    3    0    0 -0.16645961372E+02  0.14528788684E+02  0.42808847308E+03  0.42865988042E+03  0.11741245628E+01 0.  0.
         22    1    3    3    0    0  0.16645961372E+02 -0.14528788684E+02  0.24277657329E+02  0.32826488938E+02  0.00000000000E+00 0. -1.
         22    1    4    4    0    0 -0.76313504301E+01  0.74307381935E+01  0.20439809722E+03  0.20467543948E+03  0.00000000000E+00 0.  1.
         22    1    4    4    0    0 -0.90146109423E+01  0.70980504907E+01  0.22369037586E+03  0.22398444094E+03  0.00000000000E+00 0.  1.
<mgrwt>
<rscale>  0 0.91293774E+02</rscale>
<asrwt>0</asrwt>
<pdfrwt beam="2">  1        1 0.70155670E-03 0.91293774E+02</pdfrwt>
<pdfrwt beam="1">  1       -1 0.70296361E-01 0.91293774E+02</pdfrwt>
<totfact> 0.49454297E+04</totfact>
</mgrwt>
</event>
<event>
 7    1  0.3565607E-009  0.9364997E+02  0.7818608E-02  0.1294246E+00
         -1   -1    0    0    0  501 -0.00000000000E+00  0.00000000000E+00  0.11052462499E+01  0.11052577412E+01  0.50400000000E-02 0.  1.
          1   -1    0    0  501    0  0.00000000000E+00 -0.00000000000E+00 -0.19837822593E+04  0.19837822594E+04  0.50400000000E-02 0. -1.
         23    2    1    2    0    0  0.00000000000E+00 -0.35527136788E-14 -0.19826770131E+04  0.19848875171E+04  0.93649971995E+02 0.  0.
    9000005    2    3    3    0    0  0.99410288904E+01 -0.20176464741E+02 -0.18591234922E+04  0.18593033369E+04  0.12760314924E+02 0.  0.
         22    1    3    3    0    0 -0.99410288904E+01  0.20176464741E+02 -0.12355352092E+03  0.12558418020E+03  0.00000000000E+00 0.  1.
         22    1    4    4    0    0  0.10594773574E+01 -0.59695053249E-01 -0.50645101881E+03  0.50645213052E+03  0.00000000000E+00 0. -1.
         22    1    4    4    0    0  0.88815515330E+01 -0.20116769688E+02 -0.13526724734E+04  0.13528512064E+04  0.00000000000E+00 0. -1.
<mgrwt>
<rscale>  0 0.93649972E+02</rscale>
<asrwt>0</asrwt>
<pdfrwt beam="2">  1        1 0.30519442E+00 0.93649972E+02</pdfrwt>
<pdfrwt beam="1">  1       -1 0.17004036E-03 0.93649972E+02</pdfrwt>
<totfact> 0.75171373E+04</totfact>
</mgrwt>
</event>
<event>
 7    1  0.3565607E-009  0.9874953E+02  0.7818608E-02  0.1282948E+00
         -1   -1    0    0    0  501 -0.00000000000E+00  0.00000000000E+00  0.14828969751E+01  0.14829055399E+01  0.50400000000E-02 0.  1.
          1   -1    0    0  501    0  0.00000000000E+00 -0.00000000000E+00 -0.16439849753E+04  0.16439849753E+04  0.50400000000E-02 0. -1.
         23    2    1    2    0    0  0.35527136788E-14  0.00000000000E+00 -0.16425020784E+04  0.16454678809E+04  0.98749529618E+02 0.  0.
    9000005    2    3    3    0    0 -0.24964430068E+02 -0.77296081796E+01 -0.15179080515E+04  0.15181625741E+04  0.94751735636E+01 0.  0.
         22    1    3    3    0    0  0.24964430068E+02  0.77296081796E+01 -0.12459402686E+03  0.12730530680E+03  0.00000000000E+00 0.  1.
         22    1    4    4    0    0 -0.13228847437E+01  0.89857919409E+00 -0.24808704170E+03  0.24809219602E+03  0.00000000000E+00 0.  1.
         22    1    4    4    0    0 -0.23641545324E+02 -0.86281873737E+01 -0.12698210098E+04  0.12700703781E+04  0.00000000000E+00 0.  1.
<mgrwt>
<rscale>  0 0.98749530E+02</rscale>
<asrwt>0</asrwt>
<pdfrwt beam="2">  1        1 0.25291931E+00 0.98749530E+02</pdfrwt>
<pdfrwt beam="1">  1       -1 0.22813997E-03 0.98749530E+02</pdfrwt>
<totfact> 0.82243458E+04</totfact>
</mgrwt>
</event>
<event>
 7    1  0.3565607E-009  0.8896871E+02  0.7818608E-02  0.1305369E+00
         -1   -1    0    0    0  501 -0.00000000000E+00  0.00000000000E+00  0.37401495649E+02  0.37401495989E+02  0.50400000000E-02 0.  1.
          1   -1    0    0  501    0  0.00000000000E+00 -0.00000000000E+00 -0.52908517029E+02  0.52908517269E+02  0.50400000000E-02 0. -1.
         23    2    1    2    0    0  0.17763568394E-14 -0.44408920985E-15 -0.15507021380E+02  0.90310013258E+02  0.88968706761E+02 0.  0.
    9000005    2    3    3    0    0 -0.15072589280E+02  0.14034915623E+01 -0.49139549090E+02  0.53427772866E+02  0.14514781862E+02 0.  0.
         22    1    3    3    0    0  0.15072589280E+02 -0.14034915623E+01  0.33632527710E+02  0.36882240392E+02  0.00000000000E+00 0.  1.
         22    1    4    4    0    0 -0.15570946106E+02  0.36248768961E+01 -0.48494087491E+02  0.51061439626E+02  0.00000000000E+00 0.  1.
         22    1    4    4    0    0  0.49835682530E+00 -0.22213853337E+01 -0.64546159907E+00  0.23663332399E+01  0.00000000000E+00 0.  1.
<mgrwt>
<rscale>  0 0.88968707E+02</rscale>
<asrwt>0</asrwt>
<pdfrwt beam="2">  1        1 0.81397718E-02 0.88968707E+02</pdfrwt>
<pdfrwt beam="1">  1       -1 0.57540763E-02 0.88968707E+02</pdfrwt>
<totfact> 0.10123352E+05</totfact>
</mgrwt>
</event>
<event>
 7    1  0.3565607E-009  0.9293062E+02  0.7818608E-02  0.1295906E+00
         -1   -1    0    0    0  501 -0.00000000000E+00  0.00000000000E+00  0.27224655695E+01  0.27224702346E+01  0.50400000000E-02 0.  1.
          1   -1    0    0  501    0  0.00000000000E+00 -0.00000000000E+00 -0.79303960223E+03  0.79303960224E+03  0.50400000000E-02 0. -1.
         23    2    1    2    0    0  0.00000000000E+00  0.35527136788E-14 -0.79031713666E+03  0.79576207248E+03  0.92930616588E+02 0.  0.
    9000005    2    3    3    0    0 -0.33624553795E+02 -0.22735329995E+02 -0.58421017008E+03  0.58569639818E+03  0.95520764123E+01 0.  0.
         22    1    3    3    0    0  0.33624553795E+02  0.22735329995E+02 -0.20610696658E+03  0.21006567430E+03  0.00000000000E+00 0.  1.
         22    1    4    4    0    0 -0.21322373166E+01 -0.29983696576E+00 -0.70582518062E+02  0.70615353813E+02  0.00000000000E+00 0.  1.
         22    1    4    4    0    0 -0.31492316479E+02 -0.22435493029E+02 -0.51362765202E+03  0.51508104437E+03  0.00000000000E+00 0.  1.
<mgrwt>
<rscale>  0 0.92930617E+02</rscale>
<asrwt>0</asrwt>
<pdfrwt beam="2">  1        1 0.12200591E+00 0.92930617E+02</pdfrwt>
<pdfrwt beam="1">  1       -1 0.41884185E-03 0.92930617E+02</pdfrwt>
<totfact> 0.13445005E+05</totfact>
</mgrwt>
</event>
<event>
 7    1  0.3565607E-009  0.9148220E+02  0.7818608E-02  0.1299302E+00
          1   -1    0    0  501    0  0.00000000000E+00  0.00000000000E+00  0.78087275253E+02  0.78087275416E+02  0.50400000000E-02 0. -1.
         -1   -1    0    0    0  501 -0.00000000000E+00 -0.00000000000E+00 -0.26793716517E+02  0.26793716991E+02  0.50400000000E-02 0.  1.
         23    2    1    2    0    0  0.00000000000E+00 -0.44408920985E-15  0.51293558737E+02  0.10488099241E+03  0.91482202643E+02 0.  0.
    9000005    2    3    3    0    0  0.41423149262E+02  0.14043788089E+01  0.45794599677E+02  0.63070848597E+02  0.12764678162E+02 0.  0.
         22    1    3    3    0    0 -0.41423149262E+02 -0.14043788089E+01  0.54989590595E+01  0.41810143809E+02  0.00000000000E+00 0.  1.
         22    1    4    4    0    0  0.34140265830E+02 -0.30015454325E+01  0.32164831380E+02  0.47001525545E+02  0.00000000000E+00 0. -1.
         22    1    4    4    0    0  0.72828834324E+01  0.44059242414E+01  0.13629768298E+02  0.16069323052E+02  0.00000000000E+00 0. -1.
<mgrwt>
<rscale>  0 0.91482203E+02</rscale>
<asrwt>0</asrwt>
<pdfrwt beam="1">  1        1 0.12013427E-01 0.91482203E+02</pdfrwt>
<pdfrwt beam="2">  1       -1 0.41221104E-02 0.91482203E+02</pdfrwt>
<totfact> 0.99442343E+04</totfact>
</mgrwt>
</event>
<event>
 7    1  0.3565607E-009  0.9406735E+02  0.7818608E-02  0.1293291E+00
          1   -1    0    0  501    0  0.00000000000E+00  0.00000000000E+00  0.11754283344E+03  0.11754283355E+03  0.50400000000E-02 0. -1.
         -1   -1    0    0    0  501 -0.00000000000E+00 -0.00000000000E+00 -0.18820089544E+02  0.18820090219E+02  0.50400000000E-02 0.  1.
         23    2    1    2    0    0  0.00000000000E+00  0.00000000000E+00  0.98722743901E+02  0.13636292377E+03  0.94067352553E+02 0.  0.
    9000005    2    3    3    0    0 -0.23133369536E+02 -0.15939920270E+02  0.10366774845E+03  0.10783772589E+03  0.96301200302E+01 0.  0.
         22    1    3    3    0    0  0.23133369536E+02  0.15939920270E+02 -0.49450045499E+01  0.28525197883E+02  0.00000000000E+00 0.  1.
         22    1    4    4    0    0 -0.38725064528E+01 -0.73247169023E+01  0.22662367911E+02  0.24129457169E+02  0.00000000000E+00 0.  1.
         22    1    4    4    0    0 -0.19260863083E+02 -0.86152033673E+01  0.81005380539E+02  0.83708268720E+02  0.00000000000E+00 0.  1.
<mgrwt>
<rscale>  0 0.94067353E+02</rscale>
<asrwt>0</asrwt>
<pdfrwt beam="1">  1        1 0.18083513E-01 0.94067353E+02</pdfrwt>
<pdfrwt beam="2">  1       -1 0.28953984E-02 0.94067353E+02</pdfrwt>
<totfact> 0.98612466E+04</totfact>
</mgrwt>
</event>
<event>
 7    1  0.3565607E-009  0.8546045E+02  0.7818608E-02  0.1314233E+00
         -1   -1    0    0    0  501 -0.00000000000E+00  0.00000000000E+00  0.16189241242E+02  0.16189242026E+02  0.50400000000E-02 0.  1.
          1   -1    0    0  501    0  0.00000000000E+00 -0.00000000000E+00 -0.11278305670E+03  0.11278305682E+03  0.50400000000E-02 0. -1.
         23    2    1    2    0    0  0.00000000000E+00  0.35527136788E-14 -0.96593815462E+02  0.12897229884E+03  0.85460450990E+02 0.  0.
    9000005    2    3    3    0    0  0.33385307259E+02  0.26031158286E+02 -0.54099038950E+02  0.68988918034E+02  0.63690543821E+01 0.  0.
         22    1    3    3    0    0 -0.33385307259E+02 -0.26031158286E+02 -0.42494776512E+02  0.59983380809E+02  0.00000000000E+00 0. -1.
         22    1    4    4    0    0  0.30507153419E+02  0.21082296295E+02 -0.46590635805E+02  0.59546930832E+02  0.00000000000E+00 0.  1.
         22    1    4    4    0    0  0.28781538392E+01  0.49488619916E+01 -0.75084031450E+01  0.94419872019E+01  0.00000000000E+00 0.  1.
<mgrwt>
<rscale>  0 0.85460451E+02</rscale>
<asrwt>0</asrwt>
<pdfrwt beam="2">  1        1 0.17351239E-01 0.85460451E+02</pdfrwt>
<pdfrwt beam="1">  1       -1 0.24906526E-02 0.85460451E+02</pdfrwt>
<totfact> 0.12698479E+05</totfact>
</mgrwt>
</event>
<event>
 7    1  0.3565607E-009  0.9103200E+02  0.7818608E-02  0.1300372E+00
          1   -1    0    0  501    0  0.00000000000E+00  0.00000000000E+00  0.15751724588E+03  0.15751724596E+03  0.50400000000E-02 0. -1.
         -1   -1    0    0    0  501 -0.00000000000E+00 -0.00000000000E+00 -0.13152249231E+02  0.13152250197E+02  0.50400000000E-02 0.  1.
         23    2    1    2    0    0  0.17763568394E-14  0.17763568394E-14  0.14436499665E+03  0.17066949616E+03  0.91031998008E+02 0.  0.
    9000005    2    3    3    0    0 -0.12822738980E+02 -0.11242866010E+02  0.15115336129E+03  0.15231448144E+03  0.78446130903E+01 0.  0.
         22    1    3    3    0    0  0.12822738980E+02  0.11242866010E+02 -0.67883646386E+01  0.18355014725E+02  0.00000000000E+00 0.  1.
         22    1    4    4    0    0 -0.22963326657E-01 -0.97669173546E+00  0.34390085509E+02  0.34403959589E+02  0.00000000000E+00 0. -1.
         22    1    4    4    0    0 -0.12799775654E+02 -0.10266174275E+02  0.11676327578E+03  0.11791052185E+03  0.00000000000E+00 0. -1.
<mgrwt>
<rscale>  0 0.91031998E+02</rscale>
<asrwt>0</asrwt>
<pdfrwt beam="1">  1        1 0.24233423E-01 0.91031998E+02</pdfrwt>
<pdfrwt beam="2">  1       -1 0.20234230E-02 0.91031998E+02</pdfrwt>
<totfact> 0.11363679E+05</totfact>
</mgrwt>
</event>
<event>
 7    1  0.3565607E-009  0.9081007E+02  0.7818608E-02  0.1300902E+00
         -1   -1    0    0    0  501 -0.00000000000E+00  0.00000000000E+00  0.25459763492E+01  0.25459813378E+01  0.50400000000E-02 0.  1.
          1   -1    0    0  501    0  0.00000000000E+00 -0.00000000000E+00 -0.80975428460E+03  0.80975428462E+03  0.50400000000E-02 0. -1.
         23    2    1    2    0    0 -0.35527136788E-14  0.88817841970E-15 -0.80720830825E+03  0.81230026596E+03  0.90810071903E+02 0.  0.
    9000005    2    3    3    0    0  0.30337528230E+02 -0.56516053937E+01 -0.69779025182E+03  0.69861377892E+03  0.14059526616E+02 0.  0.
         22    1    3    3    0    0 -0.30337528230E+02  0.56516053937E+01 -0.10941805643E+03  0.11368648704E+03  0.00000000000E+00 0.  1.
         22    1    4    4    0    0  0.21170367307E+02 -0.96119731968E+01 -0.54646886488E+03  0.54696324810E+03  0.00000000000E+00 0. -1.
         22    1    4    4    0    0  0.91671609231E+01  0.39603678031E+01 -0.15132138694E+03  0.15165053082E+03  0.00000000000E+00 0. -1.
<mgrwt>
<rscale>  0 0.90810072E+02</rscale>
<asrwt>0</asrwt>
<pdfrwt beam="2">  1        1 0.12457738E+00 0.90810072E+02</pdfrwt>
<pdfrwt beam="1">  1       -1 0.39168970E-03 0.90810072E+02</pdfrwt>
<totfact> 0.14265426E+05</totfact>
</mgrwt>
</event>
<event>
 7    1  0.3565607E-009  0.9139198E+02  0.7818608E-02  0.1299515E+00
         -1   -1    0    0    0  501 -0.00000000000E+00  0.00000000000E+00  0.25864562668E+03  0.25864562673E+03  0.50400000000E-02 0.  1.
          1   -1    0    0  501    0  0.00000000000E+00 -0.00000000000E+00 -0.80732986011E+01  0.80733001743E+01  0.50400000000E-02 0. -1.
         23    2    1    2    0    0 -0.17763568394E-14  0.00000000000E+00  0.25057232808E+03  0.26671892690E+03  0.91391981977E+02 0.  0.
    9000005    2    3    3    0    0  0.13299276925E+02  0.40804422986E+02  0.16370671875E+03  0.16982978517E+03  0.14156075197E+02 0.  0.
         22    1    3    3    0    0 -0.13299276925E+02 -0.40804422986E+02  0.86865609334E+02  0.96889141739E+02  0.00000000000E+00 0. -1.
         22    1    4    4    0    0 -0.12162114424E+01  0.15195151897E+02  0.44350145769E+02  0.46896772183E+02  0.00000000000E+00 0.  1.
         22    1    4    4    0    0  0.14515488367E+02  0.25609271088E+02  0.11935657298E+03  0.12293301298E+03  0.00000000000E+00 0.  1.
<mgrwt>
<rscale>  0 0.91391982E+02</rscale>
<asrwt>0</asrwt>
<pdfrwt beam="2">  1        1 0.12420459E-02 0.91391982E+02</pdfrwt>
<pdfrwt beam="1">  1       -1 0.39791640E-01 0.91391982E+02</pdfrwt>
<totfact> 0.63619388E+04</totfact>
</mgrwt>
</event>
<event>
 7    1  0.3565607E-009  0.9253940E+02  0.7818608E-02  0.1296816E+00
          1   -1    0    0  501    0  0.00000000000E+00  0.00000000000E+00  0.61357074482E+01  0.61357095182E+01  0.50400000000E-02 0. -1.
         -1   -1    0    0    0  501 -0.00000000000E+00 -0.00000000000E+00 -0.34892220031E+03  0.34892220035E+03  0.50400000000E-02 0.  1.
         23    2    1    2    0    0 -0.71054273576E-14  0.00000000000E+00 -0.34278649286E+03  0.35505790987E+03  0.92539395227E+02 0.  0.
    9000005    2    3    3    0    0  0.42164042670E+02 -0.16206784138E+02 -0.14988827137E+03  0.15694130228E+03  0.11118098785E+02 0.  0.
         22    1    3    3    0    0 -0.42164042670E+02  0.16206784138E+02 -0.19289822149E+03  0.19811660759E+03  0.00000000000E+00 0.  1.
         22    1    4    4    0    0  0.32124979644E+02 -0.94832137035E+01 -0.94797193716E+02  0.10054080562E+03  0.00000000000E+00 0. -1.
         22    1    4    4    0    0  0.10039063026E+02 -0.67235704340E+01 -0.55091077655E+02  0.56400496656E+02  0.00000000000E+00 0. -1.
<mgrwt>
<rscale>  0 0.92539395E+02</rscale>
<asrwt>0</asrwt>
<pdfrwt beam="1">  1        1 0.94395543E-03 0.92539395E+02</pdfrwt>
<pdfrwt beam="2">  1       -1 0.53680323E-01 0.92539395E+02</pdfrwt>
<totfact> 0.54697289E+04</totfact>
</mgrwt>
</event>
<event>
 7    1  0.3565607E-009  0.9864660E+02  0.7818608E-02  0.1283168E+00
         -1   -1    0    0    0  501 -0.00000000000E+00  0.00000000000E+00  0.23876993003E+02  0.23876993534E+02  0.50400000000E-02 0.  1.
          1   -1    0    0  501    0  0.00000000000E+00 -0.00000000000E+00 -0.10188837849E+03  0.10188837861E+03  0.50400000000E-02 0. -1.
         23    2    1    2    0    0 -0.17763568394E-14  0.00000000000E+00 -0.78011385485E+02  0.12576537215E+03  0.98646604432E+02 0.  0.
    9000005    2    3    3    0    0 -0.13459659071E+02  0.44179713432E+02 -0.58261123993E+02  0.75535079193E+02  0.13348412585E+02 0.  0.
         22    1    3    3    0    0  0.13459659071E+02 -0.44179713432E+02 -0.19750261493E+02  0.50230292954E+02  0.00000000000E+00 0.  1.
         22    1    4    4    0    0 -0.21071586990E+01  0.50593803492E+00 -0.47728767160E+00  0.22189850381E+01  0.00000000000E+00 0.  1.
         22    1    4    4    0    0 -0.11352500372E+02  0.43673775397E+02 -0.57783836321E+02  0.73316094155E+02  0.00000000000E+00 0.  1.
<mgrwt>
<rscale>  0 0.98646604E+02</rscale>
<asrwt>0</asrwt>
<pdfrwt beam="2">  1        1 0.15675135E-01 0.98646604E+02</pdfrwt>
<pdfrwt beam="1">  1       -1 0.36733836E-02 0.98646604E+02</pdfrwt>
<totfact> 0.84440448E+04</totfact>
</mgrwt>
</event>
<event>
 7    1  0.3565607E-009  0.9069916E+02  0.7818608E-02  0.1301167E+00
         -1   -1    0    0    0  501 -0.00000000000E+00  0.00000000000E+00  0.73748426118E+02  0.73748426291E+02  0.50400000000E-02 0.  1.
          1   -1    0    0  501    0  0.00000000000E+00 -0.00000000000E+00 -0.27886486871E+02  0.27886487326E+02  0.50400000000E-02 0. -1.
         23    2    1    2    0    0  0.00000000000E+00  0.13877787808E-16  0.45861939248E+02  0.10163491362E+03  0.90699163140E+02 0.  0.
    9000005    2    3    3    0    0 -0.33505158970E+02  0.73683238337E-01  0.56216444225E+02  0.66566168556E+02  0.12172308248E+02 0.  0.
         22    1    3    3    0    0  0.33505158970E+02 -0.73683238337E-01 -0.10354504977E+02  0.35068745061E+02  0.00000000000E+00 0. -1.
         22    1    4    4    0    0 -0.22956577316E+02  0.79515651015E+00  0.26743661770E+02  0.35254221886E+02  0.00000000000E+00 0.  1.
         22    1    4    4    0    0 -0.10548581654E+02 -0.72147327181E+00  0.29472782455E+02  0.31311946669E+02  0.00000000000E+00 0.  1.
<mgrwt>
<rscale>  0 0.90699163E+02</rscale>
<asrwt>0</asrwt>
<pdfrwt beam="2">  1        1 0.42902289E-02 0.90699163E+02</pdfrwt>
<pdfrwt beam="1">  1       -1 0.11345912E-01 0.90699163E+02</pdfrwt>
<totfact> 0.86964652E+04</totfact>
</mgrwt>
</event>
<event>
 7    1  0.3565607E-009  0.9240414E+02  0.7818608E-02  0.1297132E+00
          1   -1    0    0  501    0  0.00000000000E+00  0.00000000000E+00  0.58824208910E+03  0.58824208912E+03  0.50400000000E-02 0. -1.
         -1   -1    0    0    0  501 -0.00000000000E+00 -0.00000000000E+00 -0.36288290946E+01  0.36288325945E+01  0.50400000000E-02 0.  1.
         23    2    1    2    0    0  0.17763568394E-14 -0.11102230246E-15  0.58461326000E+03  0.59187092171E+03  0.92404135182E+02 0.  0.
    9000005    2    3    3    0    0  0.11330389796E+02  0.58820708307E+00  0.57888046228E+03  0.57915916769E+03  0.13929400320E+02 0.  0.
         22    1    3    3    0    0 -0.11330389796E+02 -0.58820708307E+00  0.57327977207E+01  0.12711754018E+02  0.00000000000E+00 0.  1.
         22    1    4    4    0    0  0.76136803432E+01  0.65102194592E+01  0.24371999394E+03  0.24392578078E+03  0.00000000000E+00 0. -1.
         22    1    4    4    0    0  0.37167094531E+01 -0.59220123762E+01  0.33516046834E+03  0.33523338691E+03  0.00000000000E+00 0. -1.
<mgrwt>
<rscale>  0 0.92404135E+02</rscale>
<asrwt>0</asrwt>
<pdfrwt beam="1">  1        1 0.90498816E-01 0.92404135E+02</pdfrwt>
<pdfrwt beam="2">  1       -1 0.55828147E-03 0.92404135E+02</pdfrwt>
<totfact> 0.13648763E+05</totfact>
</mgrwt>
</event>
<event>
 7    1  0.3565607E-009  0.9302478E+02  0.7818608E-02  0.1295688E+00
         -1   -1    0    0    0  501 -0.00000000000E+00  0.00000000000E+00  0.53335414607E+01  0.53335438420E+01  0.50400000000E-02 0.  1.
          1   -1    0    0  501    0  0.00000000000E+00 -0.00000000000E+00 -0.40562200248E+03  0.40562200251E+03  0.50400000000E-02 0. -1.
         23    2    1    2    0    0 -0.35527136788E-14 -0.17763568394E-14 -0.40028846102E+03  0.41095554635E+03  0.93024776556E+02 0.  0.
    9000005    2    3    3    0    0 -0.18748594169E+02 -0.15878186610E+02 -0.37348915263E+03  0.37459857284E+03  0.15043837376E+02 0.  0.
         22    1    3    3    0    0  0.18748594169E+02  0.15878186610E+02 -0.26799308385E+02  0.36356973515E+02  0.00000000000E+00 0.  1.
         22    1    4    4    0    0 -0.90286835464E+00 -0.27024397964E+01 -0.91180582042E+01  0.95528706437E+01  0.00000000000E+00 0.  1.
         22    1    4    4    0    0 -0.17845725814E+02 -0.13175746813E+02 -0.36437109443E+03  0.36504570219E+03  0.00000000000E+00 0.  1.
<mgrwt>
<rscale>  0 0.93024777E+02</rscale>
<asrwt>0</asrwt>
<pdfrwt beam="2">  1        1 0.62403361E-01 0.93024777E+02</pdfrwt>
<pdfrwt beam="1">  1       -1 0.82054535E-03 0.93024777E+02</pdfrwt>
<totfact> 0.12817437E+05</totfact>
</mgrwt>
</event>
<event>
 7    1  0.3565607E-009  0.9227953E+02  0.7818608E-02  0.1297424E+00
         -1   -1    0    0    0  501 -0.00000000000E+00  0.00000000000E+00  0.37752286415E+02  0.37752286751E+02  0.50400000000E-02 0.  1.
          1   -1    0    0  501    0  0.00000000000E+00 -0.00000000000E+00 -0.56390706585E+02  0.56390706810E+02  0.50400000000E-02 0. -1.
         23    2    1    2    0    0  0.00000000000E+00  0.00000000000E+00 -0.18638420170E+02  0.94142993562E+02  0.92279534732E+02 0.  0.
    9000005    2    3    3    0    0 -0.28524295642E+01 -0.45567731077E+02 -0.44170455392E+01  0.46322475306E+02  0.64580923836E+01 0.  0.
         22    1    3    3    0    0  0.28524295642E+01  0.45567731077E+02 -0.14221374631E+02  0.47820518256E+02  0.00000000000E+00 0. -1.
         22    1    4    4    0    0 -0.46406581078E+01 -0.35144083812E+02 -0.22047899410E+01  0.35517649603E+02  0.00000000000E+00 0. -1.
         22    1    4    4    0    0  0.17882285436E+01 -0.10423647265E+02 -0.22122555982E+01  0.10804825703E+02  0.00000000000E+00 0. -1.
<mgrwt>
<rscale>  0 0.92279535E+02</rscale>
<asrwt>0</asrwt>
<pdfrwt beam="2">  1        1 0.86754934E-02 0.92279535E+02</pdfrwt>
<pdfrwt beam="1">  1       -1 0.58080441E-02 0.92279535E+02</pdfrwt>
<totfact> 0.92328576E+04</totfact>
</mgrwt>
</event>
<event>
 7    1  0.3565607E-009  0.9066733E+02  0.7818608E-02  0.1301244E+00
         -1   -1    0    0    0  501 -0.00000000000E+00  0.00000000000E+00  0.21919946371E+02  0.21919946951E+02  0.50400000000E-02 0.  1.
          1   -1    0    0  501    0  0.00000000000E+00 -0.00000000000E+00 -0.93756660898E+02  0.93756661034E+02  0.50400000000E-02 0. -1.
         23    2    1    2    0    0  0.00000000000E+00  0.00000000000E+00 -0.71836714527E+02  0.11567660798E+03  0.90667326424E+02 0.  0.
    9000005    2    3    3    0    0 -0.54896627464E+01 -0.43042780090E+02 -0.21159510801E+02  0.48960820554E+02  0.81620914621E+01 0.  0.
         22    1    3    3    0    0  0.54896627464E+01  0.43042780090E+02 -0.50677203726E+02  0.66715787431E+02  0.00000000000E+00 0. -1.
         22    1    4    4    0    0 -0.53919145797E+01 -0.29262659434E+02 -0.18155196645E+02  0.34856665721E+02  0.00000000000E+00 0. -1.
         22    1    4    4    0    0 -0.97748166699E-01 -0.13780120656E+02 -0.30043141561E+01  0.14104154833E+02  0.00000000000E+00 0. -1.
<mgrwt>
<rscale>  0 0.90667326E+02</rscale>
<asrwt>0</asrwt>
<pdfrwt beam="2">  1        1 0.14424102E-01 0.90667326E+02</pdfrwt>
<pdfrwt beam="1">  1       -1 0.33722995E-02 0.90667326E+02</pdfrwt>
<totfact> 0.10493933E+05</totfact>
</mgrwt>
</event>
<event>
 7    1  0.3565607E-009  0.9080083E+02  0.7818608E-02  0.1300924E+00
          1   -1    0    0  501    0  0.00000000000E+00  0.00000000000E+00  0.69089080796E+02  0.69089080980E+02  0.50400000000E-02 0. -1.
         -1   -1    0    0    0  501 -0.00000000000E+00 -0.00000000000E+00 -0.29833914963E+02  0.29833915389E+02  0.50400000000E-02 0.  1.
         23    2    1    2    0    0 -0.35527136788E-14  0.00000000000E+00  0.39255165833E+02  0.98922996369E+02  0.90800832408E+02 0.  0.
    9000005    2    3    3    0    0  0.21557673567E+02 -0.21706505448E+02 -0.14558961144E+02  0.37020929112E+02  0.14922472123E+02 0.  0.
         22    1    3    3    0    0 -0.21557673567E+02  0.21706505448E+02  0.53814126977E+02  0.61902067257E+02  0.00000000000E+00 0. -1.
         22    1    4    4    0    0  0.22764542527E+02 -0.19597825751E+02 -0.16161871637E+02  0.34110192985E+02  0.00000000000E+00 0. -1.
         22    1    4    4    0    0 -0.12068689599E+01 -0.21086796968E+01  0.16029104929E+01  0.29107361266E+01  0.00000000000E+00 0. -1.
<mgrwt>
<rscale>  0 0.90800832E+02</rscale>
<asrwt>0</asrwt>
<pdfrwt beam="1">  1        1 0.10629089E-01 0.90800832E+02</pdfrwt>
<pdfrwt beam="2">  1       -1 0.45898332E-02 0.90800832E+02</pdfrwt>
<totfact> 0.99596463E+04</totfact>
</mgrwt>
</event>
<event>
 7    1  0.3565607E-009  0.9006762E+02  0.7818608E-02  0.1302688E+00
          1   -1    0    0  501    0  0.00000000000E+00  0.00000000000E+00  0.40162418662E+03  0.40162418665E+03  0.50400000000E-02 0. -1.
         -1   -1    0    0    0  501 -0.00000000000E+00 -0.00000000000E+00 -0.50496050708E+01  0.50496075860E+01  0.50400000000E-02 0.  1.
         23    2    1    2    0    0 -0.71054273576E-14  0.00000000000E+00  0.39657458155E+03  0.40667379424E+03  0.90067620090E+02 0.  0.
    9000005    2    3    3    0    0  0.42329154157E+02  0.11319684054E+02  0.21858956727E+03  0.22337470028E+03  0.13962996309E+02 0.  0.
         22    1    3    3    0    0 -0.42329154157E+02 -0.11319684054E+02  0.17798501428E+03  0.18329909396E+03  0.00000000000E+00 0.  1.
         22    1    4    4    0    0  0.10059381771E+02  0.17763758396E+01  0.27316291960E+02  0.29163787120E+02  0.00000000000E+00 0. -1.
         22    1    4    4    0    0  0.32269772386E+02  0.95433082142E+01  0.19127327531E+03  0.19421091316E+03  0.00000000000E+00 0. -1.
<mgrwt>
<rscale>  0 0.90067620E+02</rscale>
<asrwt>0</asrwt>
<pdfrwt beam="1">  1        1 0.61788341E-01 0.90067620E+02</pdfrwt>
<pdfrwt beam="2">  1       -1 0.77686246E-03 0.90067620E+02</pdfrwt>
<totfact> 0.13943542E+05</totfact>
</mgrwt>
</event>
<event>
 7    1  0.3565607E-009  0.8925501E+02  0.7818608E-02  0.1304666E+00
         -1   -1    0    0    0  501 -0.00000000000E+00  0.00000000000E+00  0.20147133163E+02  0.20147133793E+02  0.50400000000E-02 0.  1.
          1   -1    0    0  501    0  0.00000000000E+00 -0.00000000000E+00 -0.98853467516E+02  0.98853467644E+02  0.50400000000E-02 0. -1.
         23    2    1    2    0    0  0.00000000000E+00  0.00000000000E+00 -0.78706334353E+02  0.11900060144E+03  0.89255005883E+02 0.  0.
    9000005    2    3    3    0    0  0.24272575007E+02 -0.37094684414E+02 -0.39722860887E+02  0.59967689323E+02  0.72831707645E+01 0.  0.
         22    1    3    3    0    0 -0.24272575007E+02  0.37094684414E+02 -0.38983473466E+02  0.59032912115E+02  0.00000000000E+00 0.  1.
         22    1    4    4    0    0  0.23202265161E+02 -0.34194083911E+02 -0.38937525557E+02  0.56777736655E+02  0.00000000000E+00 0.  1.
         22    1    4    4    0    0  0.10703098459E+01 -0.29006005027E+01 -0.78533533031E+00  0.31899526679E+01  0.00000000000E+00 0.  1.
<mgrwt>
<rscale>  0 0.89255006E+02</rscale>
<asrwt>0</asrwt>
<pdfrwt beam="2">  1        1 0.15208226E-01 0.89255006E+02</pdfrwt>
<pdfrwt beam="1">  1       -1 0.30995591E-02 0.89255006E+02</pdfrwt>
<totfact> 0.11047376E+05</totfact>
</mgrwt>
</event>
<event>
 7    1  0.3565607E-009  0.8585171E+02  0.7818608E-02  0.1313220E+00
          1   -1    0    0  501    0  0.00000000000E+00  0.00000000000E+00  0.80538787784E+01  0.80538803553E+01  0.50400000000E-02 0. -1.
         -1   -1    0    0    0  501 -0.00000000000E+00 -0.00000000000E+00 -0.22878773192E+03  0.22878773198E+03  0.50400000000E-02 0.  1.
         23    2    1    2    0    0  0.00000000000E+00  0.00000000000E+00 -0.22073385315E+03  0.23684161233E+03  0.85851705917E+02 0.  0.
    9000005    2    3    3    0    0  0.28502395750E+02 -0.20753329292E+01 -0.19870513578E+03  0.20075895779E+03  0.19325053611E+01 0.  0.
         22    1    3    3    0    0 -0.28502395750E+02  0.20753329292E+01 -0.22028717364E+02  0.36082654544E+02  0.00000000000E+00 0. -1.
         22    1    4    4    0    0  0.12002300743E+02 -0.17875828259E+01 -0.86205411316E+02  0.87055290566E+02  0.00000000000E+00 0.  1.
         22    1    4    4    0    0  0.16500095007E+02 -0.28775010334E+00 -0.11249972447E+03  0.11370366722E+03  0.00000000000E+00 0.  1.
<mgrwt>
<rscale>  0 0.85851706E+02</rscale>
<asrwt>0</asrwt>
<pdfrwt beam="1">  1        1 0.12390586E-02 0.85851706E+02</pdfrwt>
<pdfrwt beam="2">  1       -1 0.35198108E-01 0.85851706E+02</pdfrwt>
<totfact> 0.77976440E+04</totfact>
</mgrwt>
</event>
<event>
 7    1  0.3565607E-009  0.9079728E+02  0.7818608E-02  0.1300932E+00
          1   -1    0    0  501    0  0.00000000000E+00  0.00000000000E+00  0.14748935741E+03  0.14748935750E+03  0.50400000000E-02 0. -1.
         -1   -1    0    0    0  501 -0.00000000000E+00 -0.00000000000E+00 -0.13974137483E+02  0.13974138392E+02  0.50400000000E-02 0.  1.
         23    2    1    2    0    0  0.00000000000E+00  0.00000000000E+00  0.13351521993E+03  0.16146349589E+03  0.90797282737E+02 0.  0.
    9000005    2    3    3    0    0 -0.43749649442E+02 -0.10136586540E+02  0.73129531224E+02  0.86209169680E+02  0.82042907655E+01 0.  0.
         22    1    3    3    0    0  0.43749649442E+02  0.10136586540E+02  0.60385688703E+02  0.75254326209E+02  0.00000000000E+00 0.  1.
         22    1    4    4    0    0 -0.66458067025E+01 -0.55951184803E+00  0.16855600748E+02  0.18127081310E+02  0.00000000000E+00 0. -1.
         22    1    4    4    0    0 -0.37103842739E+02 -0.95770746924E+01  0.56273930476E+02  0.68082088371E+02  0.00000000000E+00 0. -1.
<mgrwt>
<rscale>  0 0.90797283E+02</rscale>
<asrwt>0</asrwt>
<pdfrwt beam="1">  1        1 0.22690670E-01 0.90797283E+02</pdfrwt>
<pdfrwt beam="2">  1       -1 0.21498674E-02 0.90797283E+02</pdfrwt>
<totfact> 0.11305094E+05</totfact>
</mgrwt>
</event>
<event>
 7    1  0.3565607E-009  0.9136503E+02  0.7818608E-02  0.1299579E+00
          1   -1    0    0  501    0  0.00000000000E+00  0.00000000000E+00  0.26556811518E+03  0.26556811523E+03  0.50400000000E-02 0. -1.
         -1   -1    0    0    0  501 -0.00000000000E+00 -0.00000000000E+00 -0.78582169826E+01  0.78582185988E+01  0.50400000000E-02 0.  1.
         23    2    1    2    0    0  0.17763568394E-14  0.00000000000E+00  0.25770989820E+03  0.27342633383E+03  0.91365028326E+02 0.  0.
    9000005    2    3    3    0    0 -0.10873654169E+02 -0.36526850857E+02  0.20111142096E+03  0.20519265582E+03  0.14344865775E+02 0.  0.
         22    1    3    3    0    0  0.10873654169E+02  0.36526850857E+02  0.56598477238E+02  0.68233678006E+02  0.00000000000E+00 0.  1.
         22    1    4    4    0    0 -0.18650808927E+01 -0.28211424785E+02  0.13084822518E+03  0.13386792390E+03  0.00000000000E+00 0.  1.
         22    1    4    4    0    0 -0.90085732764E+01 -0.83154260721E+01  0.70263195778E+02  0.71324731925E+02  0.00000000000E+00 0.  1.
<mgrwt>
<rscale>  0 0.91365028E+02</rscale>
<asrwt>0</asrwt>
<pdfrwt beam="1">  1        1 0.40856634E-01 0.91365028E+02</pdfrwt>
<pdfrwt beam="2">  1       -1 0.12089566E-02 0.91365028E+02</pdfrwt>
<totfact> 0.12445008E+05</totfact>
</mgrwt>
</event>
<event>
 7    1  0.3565607E-009  0.9119371E+02  0.7818608E-02  0.1299986E+00
         -1   -1    0    0    0  501 -0.00000000000E+00  0.00000000000E+00  0.80783161604E+02  0.80783161762E+02  0.50400000000E-02 0.  1.
          1   -1    0    0  501    0  0.00000000000E+00 -0.00000000000E+00 -0.25736468399E+02  0.25736468892E+02  0.50400000000E-02 0. -1.
         23    2    1    2    0    0  0.00000000000E+00 -0.22204460493E-15  0.55046693206E+02  0.10651963065E+03  0.91193712951E+02 0.  0.
    9000005    2    3    3    0    0 -0.44471454706E+02 -0.12708739893E+01  0.17589107923E+02  0.48361259806E+02  0.70787942573E+01 0.  0.
         22    1    3    3    0    0  0.44471454706E+02  0.12708739893E+01  0.37457585283E+02  0.58158370847E+02  0.00000000000E+00 0.  1.
         22    1    4    4    0    0 -0.13508001068E+01  0.18289452149E+00 -0.66109408198E+00  0.15149774651E+01  0.00000000000E+00 0. -1.
         22    1    4    4    0    0 -0.43120654600E+02 -0.14537685107E+01  0.18250202005E+02  0.46846282341E+02  0.00000000000E+00 0. -1.
<mgrwt>
<rscale>  0 0.91193713E+02</rscale>
<asrwt>0</asrwt>
<pdfrwt beam="2">  1        1 0.39594568E-02 0.91193713E+02</pdfrwt>
<pdfrwt beam="1">  1       -1 0.12428178E-01 0.91193713E+02</pdfrwt>
<totfact> 0.84470973E+04</totfact>
</mgrwt>
</event>
<event>
 7    1  0.3565607E-009  0.9099062E+02  0.7818608E-02  0.1300470E+00
         -1   -1    0    0    0  501 -0.00000000000E+00  0.00000000000E+00  0.29956164344E+02  0.29956164768E+02  0.50400000000E-02 0.  1.
          1   -1    0    0  501    0  0.00000000000E+00 -0.00000000000E+00 -0.69095069349E+02  0.69095069533E+02  0.50400000000E-02 0. -1.
         23    2    1    2    0    0  0.00000000000E+00  0.71054273576E-14 -0.39138905005E+02  0.99051234301E+02  0.90990621119E+02 0.  0.
    9000005    2    3    3    0    0 -0.16419629939E+02  0.36501588594E+02  0.52242679707E-01  0.43034127324E+02  0.15810223529E+02 0.  0.
         22    1    3    3    0    0  0.16419629939E+02 -0.36501588594E+02 -0.39191147684E+02  0.56017106977E+02  0.00000000000E+00 0. -1.
         22    1    4    4    0    0 -0.58996391681E+01  0.15938783876E+02 -0.77160867131E+01  0.18665169914E+02  0.00000000000E+00 0. -1.
         22    1    4    4    0    0 -0.10519990771E+02  0.20562804718E+02  0.77683293928E+01  0.24368957410E+02  0.00000000000E+00 0. -1.
<mgrwt>
<rscale>  0 0.90990621E+02</rscale>
<asrwt>0</asrwt>
<pdfrwt beam="2">  1        1 0.10630011E-01 0.90990621E+02</pdfrwt>
<pdfrwt beam="1">  1       -1 0.46086407E-02 0.90990621E+02</pdfrwt>
<totfact> 0.99026491E+04</totfact>
</mgrwt>
</event>
<event>
 7    1  0.3565607E-009  0.9142136E+02  0.7818608E-02  0.1299446E+00
          1   -1    0    0  501    0  0.00000000000E+00  0.00000000000E+00  0.24784180444E+03  0.24784180450E+03  0.50400000000E-02 0. -1.
         -1   -1    0    0    0  501 -0.00000000000E+00 -0.00000000000E+00 -0.84306435245E+01  0.84306450310E+01  0.50400000000E-02 0.  1.
         23    2    1    2    0    0  0.71054273576E-14  0.44408920985E-15  0.23941116092E+03  0.25627244953E+03  0.91421356440E+02 0.  0.
    9000005    2    3    3    0    0  0.36680739956E+02  0.33310882373E+01  0.46924679578E+02  0.60293832499E+02  0.87662906275E+01 0.  0.
         22    1    3    3    0    0 -0.36680739956E+02 -0.33310882373E+01  0.19248648134E+03  0.19597861703E+03  0.00000000000E+00 0. -1.
         22    1    4    4    0    0  0.13500831596E+02 -0.38998893352E+00  0.11202135707E+02  0.17547432563E+02  0.00000000000E+00 0. -1.
         22    1    4    4    0    0  0.23179908360E+02  0.37210771708E+01  0.35722543871E+02  0.42746399936E+02  0.00000000000E+00 0. -1.
<mgrwt>
<rscale>  0 0.91421356E+02</rscale>
<asrwt>0</asrwt>
<pdfrwt beam="1">  1        1 0.38129509E-01 0.91421356E+02</pdfrwt>
<pdfrwt beam="2">  1       -1 0.12970222E-02 0.91421356E+02</pdfrwt>
<totfact> 0.12258026E+05</totfact>
</mgrwt>
</event>
<event>
 6    1  0.3565607E-009  0.4307914E+03  0.7818608E-02  0.1033610E+00
         -1   -1    0    0    0  501 -0.00000000000E+00  0.00000000000E+00  0.58356392786E+02  0.58356393004E+02  0.50400000000E-02 0.  1.
          1   -1    0    0  501    0  0.00000000000E+00 -0.00000000000E+00 -0.79503379583E+03  0.79503379585E+03  0.50400000000E-02 0. -1.
    9000005    2    1    2    0    0 -0.13710621402E+03 -0.14213040981E+03 -0.19802629441E+03  0.27967929986E+03  0.26325229855E+01 0.  0.
         22    1    1    2    0    0  0.13710621402E+03  0.14213040981E+03 -0.53865110863E+03  0.57371088899E+03  0.00000000000E+00 0. -1.
         22    1    3    3    0    0 -0.12912089243E+03 -0.13353387260E+03 -0.18542350582E+03  0.26246023795E+03  0.00000000000E+00 0.  1.
         22    1    3    3    0    0 -0.79853215952E+01 -0.85965372102E+01 -0.12602788591E+02  0.17219061916E+02  0.00000000000E+00 0.  1.
<mgrwt>
<rscale>  0 0.43079139E+03</rscale>
<asrwt>0</asrwt>
<pdfrwt beam="2">  1        1 0.12231288E+00 0.43079139E+03</pdfrwt>
<pdfrwt beam="1">  1       -1 0.89779072E-02 0.43079139E+03</pdfrwt>
<totfact> 0.16791257E+03</totfact>
</mgrwt>
</event>
<event>
 7    1  0.3565607E-009  0.9290159E+02  0.7818608E-02  0.1295973E+00
         -1   -1    0    0    0  501 -0.00000000000E+00  0.00000000000E+00  0.19567798952E+01  0.19567863859E+01  0.50400000000E-02 0.  1.
          1   -1    0    0  501    0  0.00000000000E+00 -0.00000000000E+00 -0.11026649334E+04  0.11026649334E+04  0.50400000000E-02 0. -1.
         23    2    1    2    0    0  0.00000000000E+00  0.44408920985E-15 -0.11007081535E+04  0.11046217198E+04  0.92901585864E+02 0.  0.
    9000005    2    3    3    0    0  0.20336508719E+02 -0.14199542235E+01 -0.10456681608E+04  0.10459276770E+04  0.11278885270E+02 0.  0.
         22    1    3    3    0    0 -0.20336508719E+02  0.14199542235E+01 -0.55039992688E+02  0.58694042730E+02  0.00000000000E+00 0.  1.
         22    1    4    4    0    0  0.18432814935E+02 -0.23232230190E+01 -0.10211910795E+04  0.10213600672E+04  0.00000000000E+00 0.  1.
         22    1    4    4    0    0  0.19036937842E+01  0.90326879541E+00 -0.24477081307E+02  0.24567609852E+02  0.00000000000E+00 0.  1.
<mgrwt>
<rscale>  0 0.92901586E+02</rscale>
<asrwt>0</asrwt>
<pdfrwt beam="2">  1        1 0.16964026E+00 0.92901586E+02</pdfrwt>
<pdfrwt beam="1">  1       -1 0.30104444E-03 0.92901586E+02</pdfrwt>
<totfact> 0.12550438E+05</totfact>
</mgrwt>
</event>
<event>
 7    1  0.3565607E-009  0.9411789E+02  0.7818608E-02  0.1293175E+00
          1   -1    0    0  501    0  0.00000000000E+00  0.00000000000E+00  0.49963446355E+03  0.49963446358E+03  0.50400000000E-02 0. -1.
         -1   -1    0    0    0  501 -0.00000000000E+00 -0.00000000000E+00 -0.44323278779E+01  0.44323307434E+01  0.50400000000E-02 0.  1.
         23    2    1    2    0    0  0.44408920985E-15  0.00000000000E+00  0.49520213567E+03  0.50406679432E+03  0.94117893945E+02 0.  0.
    9000005    2    3    3    0    0  0.18523451599E+01  0.99502015139E+01  0.49353524414E+03  0.49380929852E+03  0.12967204670E+02 0.  0.
         22    1    3    3    0    0 -0.18523451599E+01 -0.99502015139E+01  0.16668915284E+01  0.10257495802E+02  0.00000000000E+00 0.  1.
         22    1    4    4    0    0 -0.56147236275E+01  0.39415289917E+01  0.19991495180E+03  0.20003261916E+03  0.00000000000E+00 0. -1.
         22    1    4    4    0    0  0.74670687874E+01  0.60086725222E+01  0.29362029234E+03  0.29377667936E+03  0.00000000000E+00 0. -1.
<mgrwt>
<rscale>  0 0.94117894E+02</rscale>
<asrwt>0</asrwt>
<pdfrwt beam="1">  1        1 0.76866841E-01 0.94117894E+02</pdfrwt>
<pdfrwt beam="2">  1       -1 0.68189682E-03 0.94117894E+02</pdfrwt>
<totfact> 0.12799640E+05</totfact>
</mgrwt>
</event>
<event>
 7    1  0.3565607E-009  0.9492275E+02  0.7818608E-02  0.1291350E+00
          1   -1    0    0  501    0  0.00000000000E+00  0.00000000000E+00  0.83677507523E+03  0.83677507525E+03  0.50400000000E-02 0. -1.
         -1   -1    0    0    0  501 -0.00000000000E+00 -0.00000000000E+00 -0.26919779627E+01  0.26919826808E+01  0.50400000000E-02 0.  1.
         23    2    1    2    0    0  0.00000000000E+00  0.00000000000E+00  0.83408309727E+03  0.83946705793E+03  0.94922748569E+02 0.  0.
    9000005    2    3    3    0    0 -0.27435524231E+01  0.16148979831E+02  0.81084810591E+03  0.81103852556E+03  0.63657241906E+01 0.  0.
         22    1    3    3    0    0  0.27435524231E+01 -0.16148979831E+02  0.23234991358E+02  0.28428532373E+02  0.00000000000E+00 0.  1.
         22    1    4    4    0    0  0.80940176302E+00 -0.16074502186E+00  0.26596975283E+02  0.26609773850E+02  0.00000000000E+00 0.  1.
         22    1    4    4    0    0 -0.35529541861E+01  0.16309724853E+02  0.78425113063E+03  0.78442875171E+03  0.00000000000E+00 0.  1.
<mgrwt>
<rscale>  0 0.94922749E+02</rscale>
<asrwt>0</asrwt>
<pdfrwt beam="1">  1        1 0.12873465E+00 0.94922749E+02</pdfrwt>
<pdfrwt beam="2">  1       -1 0.41415074E-03 0.94922749E+02</pdfrwt>
<totfact> 0.12642249E+05</totfact>
</mgrwt>
</event>
<event>
 7    1  0.3565607E-009  0.8825944E+02  0.7818608E-02  0.1307122E+00
          1   -1    0    0  501    0  0.00000000000E+00  0.00000000000E+00  0.47225618354E+02  0.47225618623E+02  0.50400000000E-02 0. -1.
         -1   -1    0    0    0  501 -0.00000000000E+00 -0.00000000000E+00 -0.41236774008E+02  0.41236774316E+02  0.50400000000E-02 0.  1.
         23    2    1    2    0    0  0.00000000000E+00 -0.17763568394E-14  0.59888443455E+01  0.88462392939E+02  0.88259439767E+02 0.  0.
    9000005    2    3    3    0    0 -0.39311357001E+02 -0.15468097266E+02  0.15588931324E+02  0.45140268196E+02  0.31597801692E+01 0.  0.
         22    1    3    3    0    0  0.39311357001E+02  0.15468097266E+02 -0.96000869782E+01  0.43322124743E+02  0.00000000000E+00 0.  1.
         22    1    4    4    0    0 -0.35941109969E+02 -0.13143949127E+02  0.14082463783E+02  0.40777966730E+02  0.00000000000E+00 0. -1.
         22    1    4    4    0    0 -0.33702470318E+01 -0.23241481386E+01  0.15064675407E+01  0.43623014656E+01  0.00000000000E+00 0. -1.
<mgrwt>
<rscale>  0 0.88259440E+02</rscale>
<asrwt>0</asrwt>
<pdfrwt beam="1">  1        1 0.72654798E-02 0.88259440E+02</pdfrwt>
<pdfrwt beam="2">  1       -1 0.63441191E-02 0.88259440E+02</pdfrwt>
<totfact> 0.10180177E+05</totfact>
</mgrwt>
</event>
<event>
 7    1  0.3565607E-009  0.8946309E+02  0.7818608E-02  0.1304157E+00
          1   -1    0    0  501    0  0.00000000000E+00  0.00000000000E+00  0.72718536244E+02  0.72718536419E+02  0.50400000000E-02 0. -1.
         -1   -1    0    0    0  501 -0.00000000000E+00 -0.00000000000E+00 -0.27515829818E+02  0.27515830280E+02  0.50400000000E-02 0.  1.
         23    2    1    2    0    0  0.00000000000E+00  0.17763568394E-14  0.45202706426E+02  0.10023436670E+03  0.89463085120E+02 0.  0.
    9000005    2    3    3    0    0 -0.24304038951E+02 -0.10757729951E+02  0.61665060658E+02  0.68970583020E+02  0.15746318718E+02 0.  0.
         22    1    3    3    0    0  0.24304038951E+02  0.10757729951E+02 -0.16462354232E+02  0.31263783678E+02  0.00000000000E+00 0.  1.
         22    1    4    4    0    0 -0.11376980235E+02 -0.18085373688E+01  0.43244279320E+02  0.44752365084E+02  0.00000000000E+00 0. -1.
         22    1    4    4    0    0 -0.12927058716E+02 -0.89491925819E+01  0.18420781338E+02  0.24218217936E+02  0.00000000000E+00 0. -1.
<mgrwt>
<rscale>  0 0.89463085E+02</rscale>
<asrwt>0</asrwt>
<pdfrwt beam="1">  1        1 0.11187467E-01 0.89463085E+02</pdfrwt>
<pdfrwt beam="2">  1       -1 0.42332047E-02 0.89463085E+02</pdfrwt>
<totfact> 0.10456366E+05</totfact>
</mgrwt>
</event>
<event>
 7    1  0.3565607E-009  0.8956175E+02  0.7818608E-02  0.1303916E+00
         -1   -1    0    0    0  501 -0.00000000000E+00  0.00000000000E+00  0.14859966523E+02  0.14859967378E+02  0.50400000000E-02 0. -1.
          1   -1    0    0  501    0  0.00000000000E+00 -0.00000000000E+00 -0.13494826933E+03  0.13494826942E+03  0.50400000000E-02 0.  1.
         23    2    1    2    0    0  0.00000000000E+00  0.00000000000E+00 -0.12008830280E+03  0.14980823680E+03  0.89561751559E+02 0.  0.
    9000005    2    3    3    0    0 -0.32320070213E+02 -0.19905423660E+02 -0.24273452574E+02  0.46748553341E+02  0.12466511540E+02 0.  0.
         22    1    3    3    0    0  0.32320070213E+02  0.19905423660E+02 -0.95814850229E+02  0.10305968346E+03  0.00000000000E+00 0.  1.
         22    1    4    4    0    0 -0.23580621618E+02 -0.11743523822E+02 -0.10120589939E+02  0.28220248198E+02  0.00000000000E+00 0.  1.
         22    1    4    4    0    0 -0.87394485946E+01 -0.81618998380E+01 -0.14152862635E+02  0.18528305143E+02  0.00000000000E+00 0.  1.
<mgrwt>
<rscale>  0 0.89561752E+02</rscale>
<asrwt>0</asrwt>
<pdfrwt beam="2">  1        1 0.20761271E-01 0.89561752E+02</pdfrwt>
<pdfrwt beam="1">  1       -1 0.22861489E-02 0.89561752E+02</pdfrwt>
<totfact> 0.11543608E+05</totfact>
</mgrwt>
</event>
<event>
 7    1  0.3565607E-009  0.9098206E+02  0.7818608E-02  0.1300491E+00
          1   -1    0    0  501    0  0.00000000000E+00  0.00000000000E+00  0.10283220461E+04  0.10283220462E+04  0.50400000000E-02 0. -1.
         -1   -1    0    0    0  501 -0.00000000000E+00 -0.00000000000E+00 -0.20124342978E+01  0.20124406090E+01  0.50400000000E-02 0.  1.
         23    2    1    2    0    0 -0.17763568394E-14  0.17763568394E-14  0.10263096118E+04  0.10303344868E+04  0.90982060046E+02 0.  0.
    9000005    2    3    3    0    0  0.83211520229E+01 -0.14143489880E+02  0.99282543550E+03  0.99304548111E+03  0.12949992480E+02 0.  0.
         22    1    3    3    0    0 -0.83211520229E+01  0.14143489880E+02  0.33484176344E+02  0.37289005650E+02  0.00000000000E+00 0.  1.
         22    1    4    4    0    0  0.18730012775E+01 -0.56479824066E+00  0.18327077029E+02  0.18431193213E+02  0.00000000000E+00 0. -1.
         22    1    4    4    0    0  0.64481507455E+01 -0.13578691639E+02  0.97449835847E+03  0.97461428790E+03  0.00000000000E+00 0. -1.
<mgrwt>
<rscale>  0 0.90982060E+02</rscale>
<asrwt>0</asrwt>
<pdfrwt beam="1">  1        1 0.15820398E+00 0.90982060E+02</pdfrwt>
<pdfrwt beam="2">  1       -1 0.30960461E-03 0.90982060E+02</pdfrwt>
<totfact> 0.13572214E+05</totfact>
</mgrwt>
</event>
<event>
 7    1  0.3565607E-009  0.8356786E+02  0.7818608E-02  0.1319221E+00
         -1   -1    0    0    0  501 -0.00000000000E+00  0.00000000000E+00  0.71947666080E+01  0.71947683733E+01  0.50400000000E-02 0.  1.
          1   -1    0    0  501    0  0.00000000000E+00 -0.00000000000E+00 -0.24266200414E+03  0.24266200419E+03  0.50400000000E-02 0. -1.
         23    2    1    2    0    0  0.00000000000E+00  0.00000000000E+00 -0.23546723753E+03  0.24985677257E+03  0.83567857733E+02 0.  0.
    9000005    2    3    3    0    0  0.10101804305E+02 -0.14785234177E+02 -0.23051196849E+03  0.23127709843E+03  0.57165583156E+01 0.  0.
         22    1    3    3    0    0 -0.10101804305E+02  0.14785234177E+02 -0.49552690423E+01  0.18579674141E+02  0.00000000000E+00 0.  1.
         22    1    4    4    0    0  0.47745302314E+01 -0.76381090043E+01 -0.80925590710E+02  0.81425352808E+02  0.00000000000E+00 0.  1.
         22    1    4    4    0    0  0.53272740733E+01 -0.71471251732E+01 -0.14958637778E+03  0.14985174562E+03  0.00000000000E+00 0.  1.
<mgrwt>
<rscale>  0 0.83567858E+02</rscale>
<asrwt>0</asrwt>
<pdfrwt beam="2">  1        1 0.37332610E-01 0.83567858E+02</pdfrwt>
<pdfrwt beam="1">  1       -1 0.11068875E-02 0.83567858E+02</pdfrwt>
<totfact> 0.15501603E+05</totfact>
</mgrwt>
</event>
<event>
 7    1  0.3565607E-009  0.8953752E+02  0.7818608E-02  0.1303976E+00
         -1   -1    0    0    0  501 -0.00000000000E+00  0.00000000000E+00  0.64353806418E+02  0.64353806616E+02  0.50400000000E-02 0.  1.
          1   -1    0    0  501    0  0.00000000000E+00 -0.00000000000E+00 -0.31144107322E+02  0.31144107730E+02  0.50400000000E-02 0. -1.
         23    2    1    2    0    0 -0.17763568394E-14  0.00000000000E+00  0.33209699096E+02  0.95497914346E+02  0.89537520238E+02 0.  0.
    9000005    2    3    3    0    0  0.98337195831E+01  0.32003451994E+02 -0.12559451194E+02  0.38790436014E+02  0.15034464790E+02 0.  0.
         22    1    3    3    0    0 -0.98337195831E+01 -0.32003451994E+02  0.45769150291E+02  0.56707478331E+02  0.00000000000E+00 0.  1.
         22    1    4    4    0    0 -0.27859139338E+01  0.61694959501E+00 -0.64763894240E+00  0.29259835012E+01  0.00000000000E+00 0. -1.
         22    1    4    4    0    0  0.12619633517E+02  0.31386502399E+02 -0.11911812252E+02  0.35864452513E+02  0.00000000000E+00 0. -1.
<mgrwt>
<rscale>  0 0.89537520E+02</rscale>
<asrwt>0</asrwt>
<pdfrwt beam="2">  1        1 0.47914012E-02 0.89537520E+02</pdfrwt>
<pdfrwt beam="1">  1       -1 0.99005856E-02 0.89537520E+02</pdfrwt>
<totfact> 0.91846677E+04</totfact>
</mgrwt>
</event>
<event>
 7    1  0.3565607E-009  0.8728389E+02  0.7818608E-02  0.1309566E+00
          1   -1    0    0  501    0  0.00000000000E+00  0.00000000000E+00  0.39627633662E+02  0.39627633983E+02  0.50400000000E-02 0. -1.
         -1   -1    0    0    0  501 -0.00000000000E+00 -0.00000000000E+00 -0.48062911935E+02  0.48062912200E+02  0.50400000000E-02 0.  1.
         23    2    1    2    0    0  0.00000000000E+00 -0.17763568394E-14 -0.84352782730E+01  0.87690546182E+02  0.87283892960E+02 0.  0.
    9000005    2    3    3    0    0  0.36528766260E+02 -0.12106871137E+02 -0.23452549485E+02  0.46381400368E+02  0.10967457753E+02 0.  0.
         22    1    3    3    0    0 -0.36528766260E+02  0.12106871137E+02  0.15017271212E+02  0.41309145814E+02  0.00000000000E+00 0. -1.
         22    1    4    4    0    0  0.88843616364E+01 -0.29458270750E+00 -0.11796813226E+01  0.89671795276E+01  0.00000000000E+00 0.  1.
         22    1    4    4    0    0  0.27644404624E+02 -0.11812288429E+02 -0.22272868162E+02  0.37414220841E+02  0.00000000000E+00 0.  1.
<mgrwt>
<rscale>  0 0.87283893E+02</rscale>
<asrwt>0</asrwt>
<pdfrwt beam="1">  1        1 0.60965591E-02 0.87283893E+02</pdfrwt>
<pdfrwt beam="2">  1       -1 0.73942942E-02 0.87283893E+02</pdfrwt>
<totfact> 0.10235924E+05</totfact>
</mgrwt>
</event>
<event>
 7    1  0.3565607E-009  0.1006117E+03  0.7818608E-02  0.1279015E+00
          1   -1    0    0  501    0  0.00000000000E+00  0.00000000000E+00  0.10698931892E+04  0.10698931892E+04  0.50400000000E-02 0. -1.
         -1   -1    0    0    0  501 -0.00000000000E+00 -0.00000000000E+00 -0.23653532735E+01  0.23653586430E+01  0.50400000000E-02 0.  1.
         23    2    1    2    0    0  0.00000000000E+00 -0.17763568394E-14  0.10675278359E+04  0.10722585478E+04  0.10061169400E+03 0.  0.
    9000005    2    3    3    0    0  0.38250744614E+02  0.79023723520E+01  0.86427122765E+03  0.86528314893E+03  0.14986858365E+02 0.  0.
         22    1    3    3    0    0 -0.38250744614E+02 -0.79023723520E+01  0.20325660823E+03  0.20697539888E+03  0.00000000000E+00 0.  1.
         22    1    4    4    0    0  0.13290191105E+02 -0.17558293236E+01  0.18511447182E+03  0.18559924514E+03  0.00000000000E+00 0.  1.
         22    1    4    4    0    0  0.24960553510E+02  0.96582016756E+01  0.67915675583E+03  0.67968390379E+03  0.00000000000E+00 0.  1.
<mgrwt>
<rscale>  0 0.10061169E+03</rscale>
<asrwt>0</asrwt>
<pdfrwt beam="1">  1        1 0.16459930E+00 0.10061169E+03</pdfrwt>
<pdfrwt beam="2">  1       -1 0.36390016E-03 0.10061169E+03</pdfrwt>
<totfact> 0.10261560E+05</totfact>
</mgrwt>
</event>
<event>
 7    1  0.3565607E-009  0.9325886E+02  0.7818608E-02  0.1295146E+00
          1   -1    0    0  501    0  0.00000000000E+00  0.00000000000E+00  0.85920519546E+03  0.85920519547E+03  0.50400000000E-02 0. -1.
         -1   -1    0    0    0  501 -0.00000000000E+00 -0.00000000000E+00 -0.25305965812E+01  0.25306016001E+01  0.50400000000E-02 0.  1.
         23    2    1    2    0    0  0.00000000000E+00 -0.35527136788E-14  0.85667459888E+03  0.86173579707E+03  0.93258863364E+02 0.  0.
    9000005    2    3    3    0    0  0.31497963801E+02 -0.20222600464E+02  0.67760732209E+03  0.67879819867E+03  0.14636812360E+02 0.  0.
         22    1    3    3    0    0 -0.31497963801E+02  0.20222600464E+02  0.17906727679E+03  0.18293759840E+03  0.00000000000E+00 0.  1.
         22    1    4    4    0    0  0.29757189878E+02 -0.17613960467E+02  0.66058167283E+03  0.66148612112E+03  0.00000000000E+00 0.  1.
         22    1    4    4    0    0  0.17407739231E+01 -0.26086399963E+01  0.17025649258E+02  0.17312077551E+02  0.00000000000E+00 0.  1.
<mgrwt>
<rscale>  0 0.93258863E+02</rscale>
<asrwt>0</asrwt>
<pdfrwt beam="1">  1        1 0.13218544E+00 0.93258863E+02</pdfrwt>
<pdfrwt beam="2">  1       -1 0.38932285E-03 0.93258863E+02</pdfrwt>
<totfact> 0.13204732E+05</totfact>
</mgrwt>
</event>
<event>
 7    1  0.3565607E-009  0.9190779E+02  0.7818608E-02  0.1298296E+00
         -1   -1    0    0    0  501 -0.00000000000E+00  0.00000000000E+00  0.43685133962E+02  0.43685134252E+02  0.50400000000E-02 0.  1.
          1   -1    0    0  501    0  0.00000000000E+00 -0.00000000000E+00 -0.48340486232E+02  0.48340486495E+02  0.50400000000E-02 0. -1.
         23    2    1    2    0    0  0.00000000000E+00  0.00000000000E+00 -0.46553522703E+01  0.92025620747E+02  0.91907793843E+02 0.  0.
    9000005    2    3    3    0    0  0.15704688306E+02 -0.36478181400E+02  0.20168564805E+02  0.45190571777E+02  0.76237666681E+01 0.  0.
         22    1    3    3    0    0 -0.15704688306E+02  0.36478181400E+02 -0.24823917075E+02  0.46835048970E+02  0.00000000000E+00 0. -1.
         22    1    4    4    0    0  0.13186532153E+02 -0.30188338546E+02  0.19734599771E+02  0.38401495316E+02  0.00000000000E+00 0. -1.
         22    1    4    4    0    0  0.25181561528E+01 -0.62898428545E+01  0.43396503343E+00  0.67890764611E+01  0.00000000000E+00 0. -1.
<mgrwt>
<rscale>  0 0.91907794E+02</rscale>
<asrwt>0</asrwt>
<pdfrwt beam="2">  1        1 0.74369980E-02 0.91907794E+02</pdfrwt>
<pdfrwt beam="1">  1       -1 0.67207898E-02 0.91907794E+02</pdfrwt>
<totfact> 0.91224550E+04</totfact>
</mgrwt>
</event>
<event>
 7    1  0.3565607E-009  0.9369343E+02  0.7818608E-02  0.1294146E+00
          1   -1    0    0  501    0  0.00000000000E+00  0.00000000000E+00  0.16014342872E+02  0.16014343665E+02  0.50400000000E-02 0. -1.
         -1   -1    0    0    0  501 -0.00000000000E+00 -0.00000000000E+00 -0.13704055797E+03  0.13704055806E+03  0.50400000000E-02 0.  1.
         23    2    1    2    0    0  0.00000000000E+00  0.00000000000E+00 -0.12102621510E+03  0.15305490173E+03  0.93693426674E+02 0.  0.
    9000005    2    3    3    0    0 -0.27682468127E+02 -0.12087695009E+02 -0.32703849164E+01  0.31486538434E+02  0.82628852573E+01 0.  0.
         22    1    3    3    0    0  0.27682468127E+02  0.12087695009E+02 -0.11775583018E+03  0.12156836329E+03  0.00000000000E+00 0.  1.
         22    1    4    4    0    0 -0.13899072057E+02 -0.93677994546E+01  0.10329293396E+01  0.16793058497E+02  0.00000000000E+00 0. -1.
         22    1    4    4    0    0 -0.13783396071E+02 -0.27198955548E+01 -0.43033142559E+01  0.14693479937E+02  0.00000000000E+00 0. -1.
<mgrwt>
<rscale>  0 0.93693427E+02</rscale>
<asrwt>0</asrwt>
<pdfrwt beam="1">  1        1 0.24637452E-02 0.93693427E+02</pdfrwt>
<pdfrwt beam="2">  1       -1 0.21083162E-01 0.93693427E+02</pdfrwt>
<totfact> 0.71133838E+04</totfact>
</mgrwt>
</event>
<event>
 7    1  0.3565607E-009  0.9220092E+02  0.7818608E-02  0.1297608E+00
         -1   -1    0    0    0  501 -0.00000000000E+00  0.00000000000E+00  0.51780747725E+01  0.51780772253E+01  0.50400000000E-02 0.  1.
          1   -1    0    0  501    0  0.00000000000E+00 -0.00000000000E+00 -0.41043285594E+03  0.41043285597E+03  0.50400000000E-02 0. -1.
         23    2    1    2    0    0  0.00000000000E+00  0.00000000000E+00 -0.40525478116E+03  0.41561093319E+03  0.92200922626E+02 0.  0.
    9000005    2    3    3    0    0 -0.34426086273E+02 -0.33309355555E+01 -0.33772526258E+03  0.33973942057E+03  0.12971906390E+02 0.  0.
         22    1    3    3    0    0  0.34426086273E+02  0.33309355555E+01 -0.67529518584E+02  0.75871512625E+02  0.00000000000E+00 0.  1.
         22    1    4    4    0    0 -0.28016782570E+02  0.63670017928E+00 -0.29725949983E+03  0.29857755397E+03  0.00000000000E+00 0. -1.
         22    1    4    4    0    0 -0.64093037029E+01 -0.39676357348E+01 -0.40465762748E+02  0.41161866601E+02  0.00000000000E+00 0. -1.
<mgrwt>
<rscale>  0 0.92200923E+02</rscale>
<asrwt>0</asrwt>
<pdfrwt beam="2">  1        1 0.63143491E-01 0.92200923E+02</pdfrwt>
<pdfrwt beam="1">  1       -1 0.79662740E-03 0.92200923E+02</pdfrwt>
<totfact> 0.13149314E+05</totfact>
</mgrwt>
</event>
<event>
 7    1  0.3565607E-009  0.9490115E+02  0.7818608E-02  0.1291399E+00
         -1   -1    0    0    0  501 -0.00000000000E+00  0.00000000000E+00  0.26369102761E+02  0.26369103242E+02  0.50400000000E-02 0.  1.
          1   -1    0    0  501    0  0.00000000000E+00 -0.00000000000E+00 -0.85386177944E+02  0.85386178092E+02  0.50400000000E-02 0. -1.
         23    2    1    2    0    0  0.00000000000E+00 -0.17763568394E-14 -0.59017075183E+02  0.11175528133E+03  0.94901147217E+02 0.  0.
    9000005    2    3    3    0    0  0.39732122629E+02 -0.82611946159E+01 -0.57693566043E+02  0.71151826045E+02  0.93351958528E+01 0.  0.
         22    1    3    3    0    0 -0.39732122629E+02  0.82611946159E+01 -0.13235091398E+01  0.40603455290E+02  0.00000000000E+00 0.  1.
         22    1    4    4    0    0  0.99358045932E+01  0.19829390948E+01 -0.14327691279E+02  0.17548076754E+02  0.00000000000E+00 0.  1.
         22    1    4    4    0    0  0.29796318035E+02 -0.10244133711E+02 -0.43365874764E+02  0.53603749291E+02  0.00000000000E+00 0.  1.
<mgrwt>
<rscale>  0 0.94901147E+02</rscale>
<asrwt>0</asrwt>
<pdfrwt beam="2">  1        1 0.13136335E-01 0.94901147E+02</pdfrwt>
<pdfrwt beam="1">  1       -1 0.40567851E-02 0.94901147E+02</pdfrwt>
<totfact> 0.91185329E+04</totfact>
</mgrwt>
</event>
<event>
 7    1  0.3565607E-009  0.9016454E+02  0.7818608E-02  0.1302454E+00
          1   -1    0    0  501    0  0.00000000000E+00  0.00000000000E+00  0.33906481636E+02  0.33906482010E+02  0.50400000000E-02 0. -1.
         -1   -1    0    0    0  501 -0.00000000000E+00 -0.00000000000E+00 -0.59941673745E+02  0.59941673957E+02  0.50400000000E-02 0.  1.
         23    2    1    2    0    0  0.17763568394E-14  0.00000000000E+00 -0.26035192109E+02  0.93848155967E+02  0.90164544863E+02 0.  0.
    9000005    2    3    3    0    0 -0.15950250512E+02 -0.27364488400E+02  0.19478331286E+02  0.38398119640E+02  0.95804219869E+01 0.  0.
         22    1    3    3    0    0  0.15950250512E+02  0.27364488400E+02 -0.45513523395E+02  0.55450036327E+02  0.00000000000E+00 0.  1.
         22    1    4    4    0    0 -0.11546706559E+02 -0.17004777045E+02  0.72954017154E+01  0.21810817520E+02  0.00000000000E+00 0. -1.
         22    1    4    4    0    0 -0.44035439532E+01 -0.10359711355E+02  0.12182929571E+02  0.16587302120E+02  0.00000000000E+00 0. -1.
<mgrwt>
<rscale>  0 0.90164545E+02</rscale>
<asrwt>0</asrwt>
<pdfrwt beam="1">  1        1 0.52163819E-02 0.90164545E+02</pdfrwt>
<pdfrwt beam="2">  1       -1 0.92217960E-02 0.90164545E+02</pdfrwt>
<totfact> 0.91238227E+04</totfact>
</mgrwt>
</event>
<event>
 7    1  0.3565607E-009  0.9555101E+02  0.7818608E-02  0.1289940E+00
          1   -1    0    0  501    0  0.00000000000E+00  0.00000000000E+00  0.36854523378E+03  0.36854523381E+03  0.50400000000E-02 0. -1.
         -1   -1    0    0    0  501 -0.00000000000E+00 -0.00000000000E+00 -0.61932661414E+01  0.61932681922E+01  0.50400000000E-02 0.  1.
         23    2    1    2    0    0  0.17763568394E-14  0.88817841970E-15  0.36235196764E+03  0.37473850201E+03  0.95551014828E+02 0.  0.
    9000005    2    3    3    0    0  0.12604562818E+02  0.68748145078E+01  0.35947870775E+03  0.36009631294E+03  0.15436164972E+02 0.  0.
         22    1    3    3    0    0 -0.12604562818E+02 -0.68748145078E+01  0.28732598917E+01  0.14642189070E+02  0.00000000000E+00 0.  1.
         22    1    4    4    0    0 -0.11514149088E+01  0.65446193249E+01  0.78446437292E+02  0.78727386100E+02  0.00000000000E+00 0.  1.
         22    1    4    4    0    0  0.13755977727E+02  0.33019518285E+00  0.28103227045E+03  0.28136892684E+03  0.00000000000E+00 0.  1.
<mgrwt>
<rscale>  0 0.95551015E+02</rscale>
<asrwt>0</asrwt>
<pdfrwt beam="1">  1        1 0.56699261E-01 0.95551015E+02</pdfrwt>
<pdfrwt beam="2">  1       -1 0.95281043E-03 0.95551015E+02</pdfrwt>
<totfact> 0.11741619E+05</totfact>
</mgrwt>
</event>
<event>
 7    1  0.3565607E-009  0.8951341E+02  0.7818608E-02  0.1304034E+00
         -1   -1    0    0    0  501 -0.00000000000E+00  0.00000000000E+00  0.27563070195E+02  0.27563070656E+02  0.50400000000E-02 0.  1.
          1   -1    0    0  501    0  0.00000000000E+00 -0.00000000000E+00 -0.72675594896E+02  0.72675595070E+02  0.50400000000E-02 0. -1.
         23    2    1    2    0    0  0.00000000000E+00  0.00000000000E+00 -0.45112524700E+02  0.10023866573E+03  0.89513408056E+02 0.  0.
    9000005    2    3    3    0    0  0.25009112301E+02  0.14475331760E+01  0.18768549894E+02  0.31621301002E+02  0.44829857821E+01 0.  0.
         22    1    3    3    0    0 -0.25009112301E+02 -0.14475331760E+01 -0.63881074595E+02  0.68617364725E+02  0.00000000000E+00 0. -1.
         22    1    4    4    0    0  0.86545182592E+01  0.24779743585E+01  0.77026920055E+01  0.11847890418E+02  0.00000000000E+00 0. -1.
         22    1    4    4    0    0  0.16354594042E+02 -0.10304411824E+01  0.11065857889E+02  0.19773410584E+02  0.00000000000E+00 0. -1.
<mgrwt>
<rscale>  0 0.89513408E+02</rscale>
<asrwt>0</asrwt>
<pdfrwt beam="2">  1        1 0.11180861E-01 0.89513408E+02</pdfrwt>
<pdfrwt beam="1">  1       -1 0.42404724E-02 0.89513408E+02</pdfrwt>
<totfact> 0.10439295E+05</totfact>
</mgrwt>
</event>
<event>
 7    1  0.3565607E-009  0.9173799E+02  0.7818608E-02  0.1298697E+00
         -1   -1    0    0    0  501 -0.00000000000E+00  0.00000000000E+00  0.38094429489E+01  0.38094462830E+01  0.50400000000E-02 0.  1.
          1   -1    0    0  501    0  0.00000000000E+00 -0.00000000000E+00 -0.55230216109E+03  0.55230216111E+03  0.50400000000E-02 0. -1.
         23    2    1    2    0    0  0.00000000000E+00 -0.71054273576E-14 -0.54849271814E+03  0.55611160739E+03  0.91737985735E+02 0.  0.
    9000005    2    3    3    0    0 -0.11053311899E+02 -0.36243064419E+02 -0.42666852043E+03  0.42853076804E+03  0.12524272835E+02 0.  0.
         22    1    3    3    0    0  0.11053311899E+02  0.36243064419E+02 -0.12182419771E+03  0.12758083935E+03  0.00000000000E+00 0.  1.
         22    1    4    4    0    0 -0.11144062581E+01  0.19374662557E+00 -0.41404153295E+02  0.41419601026E+02  0.00000000000E+00 0. -1.
         22    1    4    4    0    0 -0.99389056405E+01 -0.36436811044E+02 -0.38526436714E+03  0.38711116702E+03  0.00000000000E+00 0. -1.
<mgrwt>
<rscale>  0 0.91737986E+02</rscale>
<asrwt>0</asrwt>
<pdfrwt beam="2">  1        1 0.84969500E-01 0.91737986E+02</pdfrwt>
<pdfrwt beam="1">  1       -1 0.58606884E-03 0.91737986E+02</pdfrwt>
<totfact> 0.13844409E+05</totfact>
</mgrwt>
</event>
<event>
 7    1  0.3565607E-009  0.8991278E+02  0.7818608E-02  0.1303063E+00
         -1   -1    0    0    0  501 -0.00000000000E+00  0.00000000000E+00  0.42669982570E+01  0.42670012335E+01  0.50400000000E-02 0.  1.
          1   -1    0    0  501    0  0.00000000000E+00 -0.00000000000E+00 -0.47365292045E+03  0.47365292047E+03  0.50400000000E-02 0. -1.
         23    2    1    2    0    0  0.00000000000E+00  0.00000000000E+00 -0.46938592219E+03  0.47791992171E+03  0.89912777815E+02 0.  0.
    9000005    2    3    3    0    0  0.39007590175E+02  0.12537344998E+02 -0.33169241191E+03  0.33425962836E+03  0.55557108510E+01 0.  0.
         22    1    3    3    0    0 -0.39007590175E+02 -0.12537344998E+02 -0.13769351028E+03  0.14366029334E+03  0.00000000000E+00 0.  1.
         22    1    4    4    0    0  0.15587781283E+02  0.36323782599E+01 -0.14897046183E+03  0.14982780648E+03  0.00000000000E+00 0. -1.
         22    1    4    4    0    0  0.23419808892E+02  0.89049667376E+01 -0.18272195008E+03  0.18443182188E+03  0.00000000000E+00 0. -1.
<mgrwt>
<rscale>  0 0.89912778E+02</rscale>
<asrwt>0</asrwt>
<pdfrwt beam="2">  1        1 0.72869639E-01 0.89912778E+02</pdfrwt>
<pdfrwt beam="1">  1       -1 0.65646187E-03 0.89912778E+02</pdfrwt>
<totfact> 0.14353705E+05</totfact>
</mgrwt>
</event>
<event>
 7    1  0.3565607E-009  0.9232716E+02  0.7818608E-02  0.1297312E+00
         -1   -1    0    0    0  501 -0.00000000000E+00  0.00000000000E+00  0.68710737029E+02  0.68710737214E+02  0.50400000000E-02 0.  1.
          1   -1    0    0  501    0  0.00000000000E+00 -0.00000000000E+00 -0.31015181839E+02  0.31015182249E+02  0.50400000000E-02 0. -1.
         23    2    1    2    0    0  0.00000000000E+00  0.00000000000E+00  0.37695555190E+02  0.99725919463E+02  0.92327158148E+02 0.  0.
    9000005    2    3    3    0    0 -0.21935672465E+02 -0.66488211423E+01 -0.22701590254E+02  0.35125642940E+02  0.13894892688E+02 0.  0.
         22    1    3    3    0    0  0.21935672465E+02  0.66488211423E+01  0.60397145444E+02  0.64600276523E+02  0.00000000000E+00 0.  1.
         22    1    4    4    0    0 -0.20555496643E+02 -0.63699206829E+01 -0.12622317467E+02  0.24948491537E+02  0.00000000000E+00 0. -1.
         22    1    4    4    0    0 -0.13801758223E+01 -0.27890045941E+00 -0.10079272787E+02  0.10177151403E+02  0.00000000000E+00 0. -1.
<mgrwt>
<rscale>  0 0.92327158E+02</rscale>
<asrwt>0</asrwt>
<pdfrwt beam="2">  1        1 0.47715665E-02 0.92327158E+02</pdfrwt>
<pdfrwt beam="1">  1       -1 0.10570883E-01 0.92327158E+02</pdfrwt>
<totfact> 0.84067426E+04</totfact>
</mgrwt>
</event>
<event>
 7    1  0.3565607E-009  0.9769278E+02  0.7818608E-02  0.1285224E+00
         -1   -1    0    0    0  501 -0.00000000000E+00  0.00000000000E+00  0.11647320869E+03  0.11647320880E+03  0.50400000000E-02 0.  1.
          1   -1    0    0  501    0  0.00000000000E+00 -0.00000000000E+00 -0.20485137397E+02  0.20485138017E+02  0.50400000000E-02 0. -1.
         23    2    1    2    0    0  0.17763568394E-14  0.00000000000E+00  0.95988071293E+02  0.13695834682E+03  0.97692778299E+02 0.  0.
    9000005    2    3    3    0    0  0.10786599995E+02  0.35922786126E+02  0.91790972211E+02  0.99216951198E+02  0.34093288307E+01 0.  0.
         22    1    3    3    0    0 -0.10786599995E+02 -0.35922786126E+02  0.41970990829E+01  0.37741395618E+02  0.00000000000E+00 0. -1.
         22    1    4    4    0    0  0.65408329734E+01  0.26990983108E+02  0.67566206659E+02  0.73051269307E+02  0.00000000000E+00 0. -1.
         22    1    4    4    0    0  0.42457670218E+01  0.89318030179E+01  0.24224765552E+02  0.26165681890E+02  0.00000000000E+00 0. -1.
<mgrwt>
<rscale>  0 0.97692778E+02</rscale>
<asrwt>0</asrwt>
<pdfrwt beam="2">  1        1 0.31515596E-02 0.97692778E+02</pdfrwt>
<pdfrwt beam="1">  1       -1 0.17918955E-01 0.97692778E+02</pdfrwt>
<totfact> 0.66077641E+04</totfact>
</mgrwt>
</event>
<event>
 7    1  0.3565607E-009  0.9118553E+02  0.7818608E-02  0.1300006E+00
         -1   -1    0    0    0  501 -0.00000000000E+00  0.00000000000E+00  0.10815639942E+03  0.10815639953E+03  0.50400000000E-02 0.  1.
          1   -1    0    0  501    0  0.00000000000E+00 -0.00000000000E+00 -0.19219389992E+02  0.19219390653E+02  0.50400000000E-02 0. -1.
         23    2    1    2    0    0  0.17763568394E-14  0.00000000000E+00  0.88937009426E+02  0.12737579019E+03  0.91185526704E+02 0.  0.
    9000005    2    3    3    0    0  0.73253521708E+01  0.36868161384E+02  0.80043695542E+02  0.88749204264E+02  0.75170441800E+01 0.  0.
         22    1    3    3    0    0 -0.73253521708E+01 -0.36868161384E+02  0.88933138839E+01  0.38626585923E+02  0.00000000000E+00 0. -1.
         22    1    4    4    0    0 -0.10147265686E+01  0.15639597375E+01  0.23161436582E+01  0.29732409110E+01  0.00000000000E+00 0. -1.
         22    1    4    4    0    0  0.83400787394E+01  0.35304201647E+02  0.77727551883E+02  0.85775963353E+02  0.00000000000E+00 0. -1.
<mgrwt>
<rscale>  0 0.91185527E+02</rscale>
<asrwt>0</asrwt>
<pdfrwt beam="2">  1        1 0.29568293E-02 0.91185527E+02</pdfrwt>
<pdfrwt beam="1">  1       -1 0.16639446E-01 0.91185527E+02</pdfrwt>
<totfact> 0.80150337E+04</totfact>
</mgrwt>
</event>
<event>
 7    1  0.3565607E-009  0.8802226E+02  0.7818608E-02  0.1307713E+00
         -1   -1    0    0    0  501 -0.00000000000E+00  0.00000000000E+00  0.22120991061E+02  0.22120991635E+02  0.50400000000E-02 0.  1.
          1   -1    0    0  501    0  0.00000000000E+00 -0.00000000000E+00 -0.87562971311E+02  0.87562971456E+02  0.50400000000E-02 0. -1.
         23    2    1    2    0    0  0.00000000000E+00  0.17763568394E-14 -0.65441980250E+02  0.10968396309E+03  0.88022264117E+02 0.  0.
    9000005    2    3    3    0    0  0.42835936426E+02  0.94522155926E+01 -0.30879539065E+02  0.53837529277E+02  0.45466247596E+01 0.  0.
         22    1    3    3    0    0 -0.42835936426E+02 -0.94522155926E+01 -0.34562441185E+02  0.55846433814E+02  0.00000000000E+00 0.  1.
         22    1    4    4    0    0  0.98508262849E+01  0.33011738156E+00 -0.62077457103E+01  0.11648341632E+02  0.00000000000E+00 0.  1.
         22    1    4    4    0    0  0.32985110141E+02  0.91220982111E+01 -0.24671793354E+02  0.42189187645E+02  0.00000000000E+00 0.  1.
<mgrwt>
<rscale>  0 0.88022264E+02</rscale>
<asrwt>0</asrwt>
<pdfrwt beam="2">  1        1 0.13471226E-01 0.88022264E+02</pdfrwt>
<pdfrwt beam="1">  1       -1 0.34032295E-02 0.88022264E+02</pdfrwt>
<totfact> 0.11251109E+05</totfact>
</mgrwt>
</event>
<event>
 7    1  0.3565607E-009  0.1071514E+03  0.7818608E-02  0.1265938E+00
          1   -1    0    0  501    0  0.00000000000E+00  0.00000000000E+00  0.17773742364E+02  0.17773743079E+02  0.50400000000E-02 0. -1.
         -1   -1    0    0    0  501 -0.00000000000E+00 -0.00000000000E+00 -0.16149412439E+03  0.16149412447E+03  0.50400000000E-02 0.  1.
         23    2    1    2    0    0  0.88817841970E-15  0.00000000000E+00 -0.14372038203E+03  0.17926786755E+03  0.10715138882E+03 0.  0.
    9000005    2    3    3    0    0 -0.71724628541E+01 -0.51453425822E+02 -0.85290476860E+02  0.10108249123E+03  0.15630269935E+02 0.  0.
         22    1    3    3    0    0  0.71724628541E+01  0.51453425822E+02 -0.58429905167E+02  0.78185376318E+02  0.00000000000E+00 0. -1.
         22    1    4    4    0    0 -0.11216277758E+02 -0.29478446528E+02 -0.55610415098E+02  0.63932010479E+02  0.00000000000E+00 0.  1.
         22    1    4    4    0    0  0.40438149040E+01 -0.21974979293E+02 -0.29680061762E+02  0.37150480752E+02  0.00000000000E+00 0.  1.
<mgrwt>
<rscale>  0 0.10715139E+03</rscale>
<asrwt>0</asrwt>
<pdfrwt beam="1">  1        1 0.27344221E-02 0.10715139E+03</pdfrwt>
<pdfrwt beam="2">  1       -1 0.24845249E-01 0.10715139E+03</pdfrwt>
<totfact> 0.48218002E+04</totfact>
</mgrwt>
</event>
<event>
 7    1  0.3565607E-009  0.9192332E+02  0.7818608E-02  0.1298260E+00
          1   -1    0    0  501    0  0.00000000000E+00  0.00000000000E+00  0.18361420717E+02  0.18361421408E+02  0.50400000000E-02 0. -1.
         -1   -1    0    0    0  501 -0.00000000000E+00 -0.00000000000E+00 -0.11504960531E+03  0.11504960542E+03  0.50400000000E-02 0.  1.
         23    2    1    2    0    0  0.35527136788E-14  0.00000000000E+00 -0.96688184596E+02  0.13341102683E+03  0.91923321523E+02 0.  0.
    9000005    2    3    3    0    0 -0.27315007079E+02 -0.10467112099E+02  0.58888849843E+00  0.31831014047E+02  0.12537807550E+02 0.  0.
         22    1    3    3    0    0  0.27315007079E+02  0.10467112099E+02 -0.97277073095E+02  0.10158001278E+03  0.00000000000E+00 0.  1.
         22    1    4    4    0    0 -0.11853439889E+01 -0.49520742226E+01  0.58694287002E+00  0.51256786293E+01  0.00000000000E+00 0. -1.
         22    1    4    4    0    0 -0.26129663090E+02 -0.55150378767E+01  0.19456284094E-02  0.26705335418E+02  0.00000000000E+00 0. -1.
<mgrwt>
<rscale>  0 0.91923322E+02</rscale>
<asrwt>0</asrwt>
<pdfrwt beam="1">  1        1 0.28248341E-02 0.91923322E+02</pdfrwt>
<pdfrwt beam="2">  1       -1 0.17699939E-01 0.91923322E+02</pdfrwt>
<totfact> 0.77549796E+04</totfact>
</mgrwt>
</event>
<event>
 7    1  0.3565607E-009  0.8929641E+02  0.7818608E-02  0.1304565E+00
         -1   -1    0    0    0  501 -0.00000000000E+00  0.00000000000E+00  0.33830103564E+01  0.33830141107E+01  0.50400000000E-02 0.  1.
          1   -1    0    0  501    0  0.00000000000E+00 -0.00000000000E+00 -0.58925660904E+03  0.58925660907E+03  0.50400000000E-02 0. -1.
         23    2    1    2    0    0 -0.88817841970E-15  0.00000000000E+00 -0.58587359869E+03  0.59263962318E+03  0.89296412690E+02 0.  0.
    9000005    2    3    3    0    0 -0.59086950078E+01  0.41856666876E+02 -0.37061689664E+03  0.37327157396E+03  0.13707319798E+02 0.  0.
         22    1    3    3    0    0  0.59086950078E+01 -0.41856666876E+02 -0.21525670205E+03  0.21936804921E+03  0.00000000000E+00 0.  1.
         22    1    4    4    0    0 -0.91297410966E+01  0.18358301401E+02 -0.19035305392E+03  0.19145407945E+03  0.00000000000E+00 0. -1.
         22    1    4    4    0    0  0.32210460888E+01  0.23498365475E+02 -0.18026384272E+03  0.18181749451E+03  0.00000000000E+00 0. -1.
<mgrwt>
<rscale>  0 0.89296413E+02</rscale>
<asrwt>0</asrwt>
<pdfrwt beam="2">  1        1 0.90654782E-01 0.89296413E+02</pdfrwt>
<pdfrwt beam="1">  1       -1 0.52046389E-03 0.89296413E+02</pdfrwt>
<totfact> 0.14943612E+05</totfact>
</mgrwt>
</event>
<event>
 6    1  0.4234883E-009  0.1179934E+04  0.7818608E-02  0.9130604E-01
         -1   -1    0    0    0  501 -0.00000000000E+00  0.00000000000E+00  0.31908275469E+03  0.31908275473E+03  0.50400000000E-02 0.  1.
          1   -1    0    0  501    0  0.00000000000E+00 -0.00000000000E+00 -0.10908177392E+04  0.10908177392E+04  0.50400000000E-02 0. -1.
    9000005    2    1    2    0    0  0.40013436706E+03 -0.41354836856E+03 -0.54117048404E+03  0.78998940859E+03  0.93812608824E+01 0.  0.
         22    1    1    2    0    0 -0.40013436706E+03  0.41354836856E+03 -0.23056450043E+03  0.61991108532E+03  0.00000000000E+00 0.  1.
         22    1    3    3    0    0  0.35675945356E+03 -0.37282146481E+03 -0.48540650542E+03  0.70844380711E+03  0.00000000000E+00 0.  1.
         22    1    3    3    0    0  0.43374913498E+02 -0.40726903746E+02 -0.55763978625E+02  0.81545601486E+02  0.00000000000E+00 0.  1.
<mgrwt>
<rscale>  0 0.11799341E+04</rscale>
<asrwt>0</asrwt>
<pdfrwt beam="2">  1        1 0.16781811E+00 0.11799341E+04</pdfrwt>
<pdfrwt beam="1">  1       -1 0.49089655E-01 0.11799341E+04</pdfrwt>
<totfact> 0.53057555E+01</totfact>
</mgrwt>
</event>
<event>
 7    1  0.3565607E-009  0.9071334E+02  0.7818608E-02  0.1301133E+00
         -1   -1    0    0    0  501 -0.00000000000E+00  0.00000000000E+00  0.18113681411E+02  0.18113682112E+02  0.50400000000E-02 0. -1.
          1   -1    0    0  501    0  0.00000000000E+00 -0.00000000000E+00 -0.11357312750E+03  0.11357312761E+03  0.50400000000E-02 0.  1.
         23    2    1    2    0    0  0.00000000000E+00  0.00000000000E+00 -0.95459446092E+02  0.13168680973E+03  0.90713339746E+02 0.  0.
    9000005    2    3    3    0    0 -0.24865487157E+02 -0.15036810798E+02  0.28213182212E+00  0.31632585069E+02  0.12495707632E+02 0.  0.
         22    1    3    3    0    0  0.24865487157E+02  0.15036810798E+02 -0.95741577914E+02  0.10005422466E+03  0.00000000000E+00 0.  1.
         22    1    4    4    0    0 -0.25271280786E+02 -0.15503305289E+02  0.20905597624E+01  0.29721381993E+02  0.00000000000E+00 0.  1.
         22    1    4    4    0    0  0.40579362925E+00  0.46649449106E+00 -0.18084279403E+01  0.19112030753E+01  0.00000000000E+00 0.  1.
<mgrwt>
<rscale>  0 0.90713340E+02</rscale>
<asrwt>0</asrwt>
<pdfrwt beam="2">  1        1 0.17472789E-01 0.90713340E+02</pdfrwt>
<pdfrwt beam="1">  1       -1 0.27867203E-02 0.90713340E+02</pdfrwt>
<totfact> 0.10820687E+05</totfact>
</mgrwt>
</event>
<event>
 7    1  0.3565607E-009  0.9093452E+02  0.7818608E-02  0.1300604E+00
         -1   -1    0    0    0  501 -0.00000000000E+00  0.00000000000E+00  0.50320764878E+01  0.50320790118E+01  0.50400000000E-02 0.  1.
          1   -1    0    0  501    0  0.00000000000E+00 -0.00000000000E+00 -0.41081874494E+03  0.41081874497E+03  0.50400000000E-02 0. -1.
         23    2    1    2    0    0  0.00000000000E+00  0.00000000000E+00 -0.40578666845E+03  0.41585082398E+03  0.90934523221E+02 0.  0.
    9000005    2    3    3    0    0  0.12151401797E+02 -0.10070268438E+02 -0.39762412364E+03  0.39808304388E+03  0.10774936089E+02 0.  0.
         22    1    3    3    0    0 -0.12151401797E+02  0.10070268438E+02 -0.81625448053E+01  0.17767780101E+02  0.00000000000E+00 0.  1.
         22    1    4    4    0    0  0.10617497056E+02 -0.22356095706E+01 -0.19490723505E+03  0.19520901483E+03  0.00000000000E+00 0.  1.
         22    1    4    4    0    0  0.15339047407E+01 -0.78346588673E+01 -0.20271688859E+03  0.20287402905E+03  0.00000000000E+00 0.  1.
<mgrwt>
<rscale>  0 0.90934523E+02</rscale>
<asrwt>0</asrwt>
<pdfrwt beam="2">  1        1 0.63202858E-01 0.90934523E+02</pdfrwt>
<pdfrwt beam="1">  1       -1 0.77416613E-03 0.90934523E+02</pdfrwt>
<totfact> 0.13643523E+05</totfact>
</mgrwt>
</event>
<event>
 7    1  0.3565607E-009  0.9225280E+02  0.7818608E-02  0.1297486E+00
          1   -1    0    0  501    0  0.00000000000E+00  0.00000000000E+00  0.64323120342E+02  0.64323120539E+02  0.50400000000E-02 0. -1.
         -1   -1    0    0    0  501 -0.00000000000E+00 -0.00000000000E+00 -0.33077452632E+02  0.33077453016E+02  0.50400000000E-02 0.  1.
         23    2    1    2    0    0  0.00000000000E+00  0.35527136788E-14  0.31245667710E+02  0.97400573555E+02  0.92252804718E+02 0.  0.
    9000005    2    3    3    0    0  0.32544416339E+02 -0.28440071805E+02  0.32429207116E+02  0.54164275325E+02  0.37601234325E+01 0.  0.
         22    1    3    3    0    0 -0.32544416339E+02  0.28440071805E+02 -0.11835394061E+01  0.43236298230E+02  0.00000000000E+00 0. -1.
         22    1    4    4    0    0  0.15614545088E+02 -0.16114600892E+02  0.17111975502E+02  0.28219037648E+02  0.00000000000E+00 0. -1.
         22    1    4    4    0    0  0.16929871251E+02 -0.12325470913E+02  0.15317231614E+02  0.25945237677E+02  0.00000000000E+00 0. -1.
<mgrwt>
<rscale>  0 0.92252805E+02</rscale>
<asrwt>0</asrwt>
<pdfrwt beam="1">  1        1 0.98958646E-02 0.92252805E+02</pdfrwt>
<pdfrwt beam="2">  1       -1 0.50888390E-02 0.92252805E+02</pdfrwt>
<totfact> 0.94279335E+04</totfact>
</mgrwt>
</event>
<event>
 7    1  0.3565607E-009  0.9318165E+02  0.7818608E-02  0.1295325E+00
         -1   -1    0    0    0  501 -0.00000000000E+00  0.00000000000E+00  0.34352655622E+02  0.34352655991E+02  0.50400000000E-02 0.  1.
          1   -1    0    0  501    0  0.00000000000E+00 -0.00000000000E+00 -0.63188848428E+02  0.63188848629E+02  0.50400000000E-02 0. -1.
         23    2    1    2    0    0  0.00000000000E+00  0.00000000000E+00 -0.28836192807E+02  0.97541504621E+02  0.93181645768E+02 0.  0.
    9000005    2    3    3    0    0 -0.41118256365E+02  0.20235067629E+02 -0.20580337246E+02  0.50976194362E+02  0.86517710328E+01 0.  0.
         22    1    3    3    0    0  0.41118256365E+02 -0.20235067629E+02 -0.82558555606E+01  0.46565310259E+02  0.00000000000E+00 0.  1.
         22    1    4    4    0    0 -0.17782535861E+02  0.12894818588E+02 -0.73380646324E+01  0.23159061307E+02  0.00000000000E+00 0. -1.
         22    1    4    4    0    0 -0.23335720504E+02  0.73402490413E+01 -0.13242272614E+02  0.27817133055E+02  0.00000000000E+00 0. -1.
<mgrwt>
<rscale>  0 0.93181646E+02</rscale>
<asrwt>0</asrwt>
<pdfrwt beam="2">  1        1 0.97213613E-02 0.93181646E+02</pdfrwt>
<pdfrwt beam="1">  1       -1 0.52850240E-02 0.93181646E+02</pdfrwt>
<totfact> 0.91441835E+04</totfact>
</mgrwt>
</event>
<event>
 7    1  0.3565607E-009  0.8796039E+02  0.7818608E-02  0.1307867E+00
         -1   -1    0    0    0  501 -0.00000000000E+00  0.00000000000E+00  0.11307657031E+02  0.11307658154E+02  0.50400000000E-02 0.  1.
          1   -1    0    0  501    0  0.00000000000E+00 -0.00000000000E+00 -0.17105729620E+03  0.17105729627E+03  0.50400000000E-02 0. -1.
         23    2    1    2    0    0  0.35527136788E-14  0.00000000000E+00 -0.15974963916E+03  0.18236495442E+03  0.87960385337E+02 0.  0.
    9000005    2    3    3    0    0  0.26037149343E+02  0.90432722135E+01 -0.11948452347E+02  0.32015678592E+02  0.11069066988E+02 0.  0.
         22    1    3    3    0    0 -0.26037149343E+02 -0.90432722135E+01 -0.14780118682E+03  0.15034927583E+03  0.00000000000E+00 0. -1.
         22    1    4    4    0    0  0.19182899095E+02  0.58596213123E+01 -0.29646675993E+01  0.20275799209E+02  0.00000000000E+00 0.  1.
         22    1    4    4    0    0  0.68542502485E+01  0.31836509012E+01 -0.89837847477E+01  0.11739879383E+02  0.00000000000E+00 0.  1.
<mgrwt>
<rscale>  0 0.87960385E+02</rscale>
<asrwt>0</asrwt>
<pdfrwt beam="2">  1        1 0.26316505E-01 0.87960385E+02</pdfrwt>
<pdfrwt beam="1">  1       -1 0.17396398E-02 0.87960385E+02</pdfrwt>
<totfact> 0.12653110E+05</totfact>
</mgrwt>
</event>
<event>
 7    1  0.3565607E-009  0.9117204E+02  0.7818608E-02  0.1300038E+00
          1   -1    0    0  501    0  0.00000000000E+00  0.00000000000E+00  0.99381401518E+03  0.99381401519E+03  0.50400000000E-02 0. -1.
         -1   -1    0    0    0  501 -0.00000000000E+00 -0.00000000000E+00 -0.20910170065E+01  0.20910230805E+01  0.50400000000E-02 0.  1.
         23    2    1    2    0    0  0.00000000000E+00  0.35527136788E-14  0.99172299817E+03  0.99590503827E+03  0.91172036020E+02 0.  0.
    9000005    2    3    3    0    0  0.23836075713E+02 -0.22683710850E+02  0.83481493035E+03  0.83558395110E+03  0.14207820470E+02 0.  0.
         22    1    3    3    0    0 -0.23836075713E+02  0.22683710850E+02  0.15690806782E+03  0.16032108717E+03  0.00000000000E+00 0.  1.
         22    1    4    4    0    0  0.26331380996E+01  0.19859602499E+01  0.70472950944E+02  0.70550083409E+02  0.00000000000E+00 0.  1.
         22    1    4    4    0    0  0.21202937613E+02 -0.24669671100E+02  0.76434197941E+03  0.76503386769E+03  0.00000000000E+00 0.  1.
<mgrwt>
<rscale>  0 0.91172036E+02</rscale>
<asrwt>0</asrwt>
<pdfrwt beam="1">  1        1 0.15289471E+00 0.91172036E+02</pdfrwt>
<pdfrwt beam="2">  1       -1 0.32169487E-03 0.91172036E+02</pdfrwt>
<totfact> 0.13625603E+05</totfact>
</mgrwt>
</event>
<event>
 7    1  0.3565607E-009  0.8755567E+02  0.7818608E-02  0.1308881E+00
          1   -1    0    0  501    0  0.00000000000E+00  0.00000000000E+00  0.71879506297E+02  0.71879506474E+02  0.50400000000E-02 0. -1.
         -1   -1    0    0    0  501 -0.00000000000E+00 -0.00000000000E+00 -0.26662659947E+02  0.26662660424E+02  0.50400000000E-02 0.  1.
         23    2    1    2    0    0 -0.17763568394E-14  0.71054273576E-14  0.45216846349E+02  0.98542166897E+02  0.87555670650E+02 0.  0.
    9000005    2    3    3    0    0 -0.11608414365E+02  0.41258676149E+02  0.18586911243E+02  0.48082409809E+02  0.11375905318E+02 0.  0.
         22    1    3    3    0    0  0.11608414365E+02 -0.41258676149E+02  0.26629935106E+02  0.50459757088E+02  0.00000000000E+00 0. -1.
         22    1    4    4    0    0 -0.98765646066E+01  0.25391165509E+02  0.63628336023E+01  0.27977552891E+02  0.00000000000E+00 0.  1.
         22    1    4    4    0    0 -0.17318497587E+01  0.15867510641E+02  0.12224077641E+02  0.20104856918E+02  0.00000000000E+00 0.  1.
<mgrwt>
<rscale>  0 0.87555671E+02</rscale>
<asrwt>0</asrwt>
<pdfrwt beam="1">  1        1 0.11058385E-01 0.87555671E+02</pdfrwt>
<pdfrwt beam="2">  1       -1 0.41019478E-02 0.87555671E+02</pdfrwt>
<totfact> 0.11072938E+05</totfact>
</mgrwt>
</event>
<event>
 7    1  0.3565607E-009  0.9853165E+02  0.7818608E-02  0.1283414E+00
         -1   -1    0    0    0  501 -0.00000000000E+00  0.00000000000E+00  0.79467672141E+01  0.79467688124E+01  0.50400000000E-02 0.  1.
          1   -1    0    0  501    0  0.00000000000E+00 -0.00000000000E+00 -0.30542246523E+03  0.30542246527E+03  0.50400000000E-02 0. -1.
         23    2    1    2    0    0  0.00000000000E+00  0.00000000000E+00 -0.29747569801E+03  0.31336923408E+03  0.98531649536E+02 0.  0.
    9000005    2    3    3    0    0  0.10004862823E+02  0.47523713138E+02 -0.16568774611E+03  0.17291758810E+03  0.94584604775E+01 0.  0.
         22    1    3    3    0    0 -0.10004862823E+02 -0.47523713138E+02 -0.13178795190E+03  0.14045164598E+03  0.00000000000E+00 0. -1.
         22    1    4    4    0    0  0.38771080476E+01  0.28750819889E+02 -0.11255648248E+03  0.11623512103E+03  0.00000000000E+00 0.  1.
         22    1    4    4    0    0  0.61277547751E+01  0.18772893249E+02 -0.53131263624E+02  0.56682467076E+02  0.00000000000E+00 0.  1.
<mgrwt>
<rscale>  0 0.98531650E+02</rscale>
<asrwt>0</asrwt>
<pdfrwt beam="2">  1        1 0.46988063E-01 0.98531650E+02</pdfrwt>
<pdfrwt beam="1">  1       -1 0.12225799E-02 0.98531650E+02</pdfrwt>
<totfact> 0.10446026E+05</totfact>
</mgrwt>
</event>
<event>
 7    1  0.3565607E-009  0.9146890E+02  0.7818608E-02  0.1299333E+00
         -1   -1    0    0    0  501 -0.00000000000E+00  0.00000000000E+00  0.39792383813E+01  0.39792415730E+01  0.50400000000E-02 0.  1.
          1   -1    0    0  501    0  0.00000000000E+00 -0.00000000000E+00 -0.52563800127E+03  0.52563800130E+03  0.50400000000E-02 0. -1.
         23    2    1    2    0    0  0.00000000000E+00 -0.35527136788E-14 -0.52165876289E+03  0.52961724287E+03  0.91468896592E+02 0.  0.
    9000005    2    3    3    0    0  0.53881926609E+01  0.23086743411E+02 -0.48634840628E+03  0.48708664652E+03  0.12513935872E+02 0.  0.
         22    1    3    3    0    0 -0.53881926609E+01 -0.23086743411E+02 -0.35310356617E+02  0.42530596350E+02  0.00000000000E+00 0.  1.
         22    1    4    4    0    0  0.80690278458E+01  0.22627277787E+02 -0.44619322627E+03  0.44683945448E+03  0.00000000000E+00 0. -1.
         22    1    4    4    0    0 -0.26808351849E+01  0.45946562321E+00 -0.40155180004E+02  0.40247192040E+02  0.00000000000E+00 0. -1.
<mgrwt>
<rscale>  0 0.91468897E+02</rscale>
<asrwt>0</asrwt>
<pdfrwt beam="2">  1        1 0.80867330E-01 0.91468897E+02</pdfrwt>
<pdfrwt beam="1">  1       -1 0.61219118E-03 0.91468897E+02</pdfrwt>
<totfact> 0.13885972E+05</totfact>
</mgrwt>
</event>
<event>
 7    1  0.4483905E-009  0.9122152E+02  0.7818608E-02  0.1299920E+00
          1   -1    0    0  501    0  0.00000000000E+00  0.00000000000E+00  0.49759435265E+01  0.49759460789E+01  0.50400000000E-02 0. -1.
         -1   -1    0    0    0  501 -0.00000000000E+00 -0.00000000000E+00 -0.41807965626E+03  0.41807965629E+03  0.50400000000E-02 0.  1.
         23    2    1    2    0    0  0.71054273576E-14 -0.17763568394E-14 -0.41310371273E+03  0.42305560237E+03  0.91221517318E+02 0.  0.
    9000005    2    3    3    0    0 -0.41460231971E+02  0.13368994722E+02 -0.24936289725E+03  0.25361907883E+03  0.15591721042E+02 0.  0.
         22    1    3    3    0    0  0.41460231971E+02 -0.13368994722E+02 -0.16374081548E+03  0.16943652353E+03  0.00000000000E+00 0.  1.
         22    1    4    4    0    0 -0.31062159822E+02  0.40933108401E+01 -0.19488735442E+03  0.19738970054E+03  0.00000000000E+00 0. -1.
         22    1    4    4    0    0 -0.10398072149E+02  0.92756838817E+01 -0.54475542830E+02  0.56229378287E+02  0.00000000000E+00 0. -1.
<mgrwt>
<rscale>  0 0.91221517E+02</rscale>
<asrwt>0</asrwt>
<pdfrwt beam="1">  1        1 0.76553030E-03 0.91221517E+02</pdfrwt>
<pdfrwt beam="2">  1       -1 0.64319920E-01 0.91221517E+02</pdfrwt>
<totfact> 0.52023112E+04</totfact>
</mgrwt>
</event>
<event>
 7    1  0.3565607E-009  0.9256105E+02  0.7818608E-02  0.1296766E+00
          1   -1    0    0  501    0  0.00000000000E+00  0.00000000000E+00  0.86271047687E+02  0.86271047834E+02  0.50400000000E-02 0.  1.
         -1   -1    0    0    0  501 -0.00000000000E+00 -0.00000000000E+00 -0.24827415856E+02  0.24827416367E+02  0.50400000000E-02 0. -1.
         23    2    1    2    0    0  0.22204460493E-15  0.00000000000E+00  0.61443631831E+02  0.11109846420E+03  0.92561054744E+02 0.  0.
    9000005    2    3    3    0    0 -0.16585504415E+01 -0.25956957548E+02  0.76005959924E+02  0.81289475051E+02  0.12432150878E+02 0.  0.
         22    1    3    3    0    0  0.16585504415E+01  0.25956957548E+02 -0.14562328092E+02  0.29808989150E+02  0.00000000000E+00 0. -1.
         22    1    4    4    0    0 -0.30530764340E+01 -0.12009427627E+01  0.16521661028E+02  0.16844251909E+02  0.00000000000E+00 0. -1.
         22    1    4    4    0    0  0.13945259925E+01 -0.24756014785E+02  0.59484298895E+02  0.64445223142E+02  0.00000000000E+00 0. -1.
<mgrwt>
<rscale>  0 0.92561055E+02</rscale>
<asrwt>0</asrwt>
<pdfrwt beam="1">  1        1 0.13272469E-01 0.92561055E+02</pdfrwt>
<pdfrwt beam="2">  1       -1 0.38196026E-02 0.92561055E+02</pdfrwt>
<totfact> 0.97832723E+04</totfact>
</mgrwt>
</event>
<event>
 7    1  0.3565607E-009  0.9262030E+02  0.7818608E-02  0.1296628E+00
         -1   -1    0    0    0  501 -0.00000000000E+00  0.00000000000E+00  0.22146561232E+02  0.22146561806E+02  0.50400000000E-02 0. -1.
          1   -1    0    0  501    0  0.00000000000E+00 -0.00000000000E+00 -0.96838063587E+02  0.96838063718E+02  0.50400000000E-02 0.  1.
         23    2    1    2    0    0  0.71054273576E-14  0.35527136788E-14 -0.74691502355E+02  0.11898462552E+03  0.92620303319E+02 0.  0.
    9000005    2    3    3    0    0 -0.33507088686E+02 -0.24158393958E+02 -0.11396044926E+02  0.43402432370E+02  0.68955278881E+01 0.  0.
         22    1    3    3    0    0  0.33507088686E+02  0.24158393958E+02 -0.63295457428E+02  0.75582193153E+02  0.00000000000E+00 0.  1.
         22    1    4    4    0    0 -0.68905793338E+01 -0.28215475334E+01 -0.30787121936E-01  0.74459493609E+01  0.00000000000E+00 0.  1.
         22    1    4    4    0    0 -0.26616509352E+02 -0.21336846425E+02 -0.11365257804E+02  0.35956483009E+02  0.00000000000E+00 0.  1.
<mgrwt>
<rscale>  0 0.92620303E+02</rscale>
<asrwt>0</asrwt>
<pdfrwt beam="2">  1        1 0.14898163E-01 0.92620303E+02</pdfrwt>
<pdfrwt beam="1">  1       -1 0.34071634E-02 0.92620303E+02</pdfrwt>
<totfact> 0.99530177E+04</totfact>
</mgrwt>
</event>
<event>
 7    1  0.3565607E-009  0.9120564E+02  0.7818608E-02  0.1299958E+00
          1   -1    0    0  501    0  0.00000000000E+00  0.00000000000E+00  0.10642213568E+03  0.10642213580E+03  0.50400000000E-02 0. -1.
         -1   -1    0    0    0  501 -0.00000000000E+00 -0.00000000000E+00 -0.19541208510E+02  0.19541209160E+02  0.50400000000E-02 0.  1.
         23    2    1    2    0    0  0.00000000000E+00  0.00000000000E+00  0.86880927167E+02  0.12596334496E+03  0.91205639998E+02 0.  0.
    9000005    2    3    3    0    0  0.14027560723E+02 -0.24285702587E+02  0.92867069474E+02  0.97285797822E+02  0.73257119176E+01 0.  0.
         22    1    3    3    0    0 -0.14027560723E+02  0.24285702587E+02 -0.59861423074E+01  0.28677547135E+02  0.00000000000E+00 0.  1.
         22    1    4    4    0    0  0.35213867792E+01 -0.12158042262E+02  0.34319685094E+02  0.36579487988E+02  0.00000000000E+00 0. -1.
         22    1    4    4    0    0  0.10506173944E+02 -0.12127660325E+02  0.58547384380E+02  0.60706309834E+02  0.00000000000E+00 0. -1.
<mgrwt>
<rscale>  0 0.91205640E+02</rscale>
<asrwt>0</asrwt>
<pdfrwt beam="1">  1        1 0.16372636E-01 0.91205640E+02</pdfrwt>
<pdfrwt beam="2">  1       -1 0.30063399E-02 0.91205640E+02</pdfrwt>
<totfact> 0.10545584E+05</totfact>
</mgrwt>
</event>
<event>
 7    1  0.3565607E-009  0.9053526E+02  0.7818608E-02  0.1301561E+00
          1   -1    0    0  501    0  0.00000000000E+00  0.00000000000E+00  0.91206969748E+03  0.91206969749E+03  0.50400000000E-02 0. -1.
         -1   -1    0    0    0  501 -0.00000000000E+00 -0.00000000000E+00 -0.22467093649E+01  0.22467150179E+01  0.50400000000E-02 0.  1.
         23    2    1    2    0    0  0.00000000000E+00  0.00000000000E+00  0.90982298811E+03  0.91431641251E+03  0.90535255485E+02 0.  0.
    9000005    2    3    3    0    0  0.19013225257E+02  0.19342938815E+02  0.81745825709E+03  0.81805169647E+03  0.15327230697E+02 0.  0.
         22    1    3    3    0    0 -0.19013225257E+02 -0.19342938815E+02  0.92364731021E+02  0.96264716035E+02  0.00000000000E+00 0.  1.
         22    1    4    4    0    0  0.62382834271E+01 -0.11502150017E+01  0.24890187722E+03  0.24898269751E+03  0.00000000000E+00 0.  1.
         22    1    4    4    0    0  0.12774941830E+02  0.20493153817E+02  0.56855637987E+03  0.56906899897E+03  0.00000000000E+00 0.  1.
<mgrwt>
<rscale>  0 0.90535255E+02</rscale>
<asrwt>0</asrwt>
<pdfrwt beam="1">  1        1 0.14031823E+00 0.90535255E+02</pdfrwt>
<pdfrwt beam="2">  1       -1 0.34564850E-03 0.90535255E+02</pdfrwt>
<totfact> 0.14146097E+05</totfact>
</mgrwt>
</event>
<event>
 7    1  0.3565607E-009  0.9023905E+02  0.7818608E-02  0.1302274E+00
          1   -1    0    0  501    0  0.00000000000E+00  0.00000000000E+00  0.36630968277E+02  0.36630968624E+02  0.50400000000E-02 0. -1.
         -1   -1    0    0    0  501 -0.00000000000E+00 -0.00000000000E+00 -0.55575146749E+02  0.55575146978E+02  0.50400000000E-02 0.  1.
         23    2    1    2    0    0 -0.35527136788E-14  0.00000000000E+00 -0.18944178472E+02  0.92206115602E+02  0.90239048402E+02 0.  0.
    9000005    2    3    3    0    0  0.31339435521E+02 -0.17580625753E+02 -0.37152063083E+02  0.51922549689E+02  0.49433545561E+01 0.  0.
         22    1    3    3    0    0 -0.31339435521E+02  0.17580625753E+02  0.18207884611E+02  0.40283565913E+02  0.00000000000E+00 0. -1.
         22    1    4    4    0    0  0.25377856712E+02 -0.12227259052E+02 -0.27354588661E+02  0.39265952122E+02  0.00000000000E+00 0. -1.
         22    1    4    4    0    0  0.59615788086E+01 -0.53533667013E+01 -0.97974744227E+01  0.12656597568E+02  0.00000000000E+00 0. -1.
<mgrwt>
<rscale>  0 0.90239048E+02</rscale>
<asrwt>0</asrwt>
<pdfrwt beam="1">  1        1 0.56355336E-02 0.90239048E+02</pdfrwt>
<pdfrwt beam="2">  1       -1 0.85500227E-02 0.90239048E+02</pdfrwt>
<totfact> 0.92110882E+04</totfact>
</mgrwt>
</event>
<event>
 7    1  0.3565607E-009  0.9167534E+02  0.7818608E-02  0.1298845E+00
          1   -1    0    0  501    0  0.00000000000E+00  0.00000000000E+00  0.75308961190E+02  0.75308961359E+02  0.50400000000E-02 0. -1.
         -1   -1    0    0    0  501 -0.00000000000E+00 -0.00000000000E+00 -0.27899627711E+02  0.27899628166E+02  0.50400000000E-02 0.  1.
         23    2    1    2    0    0  0.00000000000E+00  0.35527136788E-14  0.47409333479E+02  0.10320858952E+03  0.91675340472E+02 0.  0.
    9000005    2    3    3    0    0  0.39203548058E+01  0.23363896384E+02  0.67851806270E+02  0.71917448129E+02  0.26478095248E+01 0.  0.
         22    1    3    3    0    0 -0.39203548058E+01 -0.23363896384E+02 -0.20442472790E+02  0.31291141396E+02  0.00000000000E+00 0.  1.
         22    1    4    4    0    0  0.42039672793E+00  0.98531590133E+01  0.26681803535E+02  0.28446091398E+02  0.00000000000E+00 0. -1.
         22    1    4    4    0    0  0.34999580779E+01  0.13510737371E+02  0.41170002735E+02  0.43471356731E+02  0.00000000000E+00 0. -1.
<mgrwt>
<rscale>  0 0.91675340E+02</rscale>
<asrwt>0</asrwt>
<pdfrwt beam="1">  1        1 0.11585994E-01 0.91675340E+02</pdfrwt>
<pdfrwt beam="2">  1       -1 0.42922505E-02 0.91675340E+02</pdfrwt>
<totfact> 0.98305709E+04</totfact>
</mgrwt>
</event>
<event>
 7    1  0.3565607E-009  0.9042880E+02  0.7818608E-02  0.1301817E+00
         -1   -1    0    0    0  501 -0.00000000000E+00  0.00000000000E+00  0.11016113818E+03  0.11016113830E+03  0.50400000000E-02 0.  1.
          1   -1    0    0  501    0  0.00000000000E+00 -0.00000000000E+00 -0.18557741503E+02  0.18557742187E+02  0.50400000000E-02 0. -1.
         23    2    1    2    0    0  0.00000000000E+00  0.00000000000E+00  0.91603396677E+02  0.12871888048E+03  0.90428800224E+02 0.  0.
    9000005    2    3    3    0    0 -0.17661647274E+01  0.18619834492E+02  0.10438975591E+03  0.10606256664E+03  0.14930941198E+01 0.  0.
         22    1    3    3    0    0  0.17661647274E+01 -0.18619834492E+02 -0.12786359232E+02  0.22656313839E+02  0.00000000000E+00 0. -1.
         22    1    4    4    0    0 -0.52543891380E+00  0.13514522581E+01  0.80351029809E+01  0.81648875787E+01  0.00000000000E+00 0. -1.
         22    1    4    4    0    0 -0.12407258136E+01  0.17268382233E+02  0.96354652929E+02  0.97897679066E+02  0.00000000000E+00 0. -1.
<mgrwt>
<rscale>  0 0.90428800E+02</rscale>
<asrwt>0</asrwt>
<pdfrwt beam="2">  1        1 0.28550372E-02 0.90428800E+02</pdfrwt>
<pdfrwt beam="1">  1       -1 0.16947867E-01 0.90428800E+02</pdfrwt>
<totfact> 0.81599608E+04</totfact>
</mgrwt>
</event>
<event>
 7    1  0.3565607E-009  0.9121143E+02  0.7818608E-02  0.1299944E+00
          1   -1    0    0  501    0  0.00000000000E+00  0.00000000000E+00  0.11598177572E+03  0.11598177583E+03  0.50400000000E-02 0. -1.
         -1   -1    0    0    0  501 -0.00000000000E+00 -0.00000000000E+00 -0.17932826853E+02  0.17932827561E+02  0.50400000000E-02 0.  1.
         23    2    1    2    0    0 -0.88817841970E-15  0.35527136788E-14  0.98048948866E+02  0.13391460339E+03  0.91211428162E+02 0.  0.
    9000005    2    3    3    0    0  0.70114219580E+01 -0.21707745504E+02  0.10650087402E+03  0.10958722598E+03  0.12105274780E+02 0.  0.
         22    1    3    3    0    0 -0.70114219580E+01  0.21707745504E+02 -0.84519251585E+01  0.24327377409E+02  0.00000000000E+00 0.  1.
         22    1    4    4    0    0  0.72791071977E+01 -0.52851403586E+01  0.47424472241E+02  0.48270059846E+02  0.00000000000E+00 0.  1.
         22    1    4    4    0    0 -0.26768523973E+00 -0.16422605145E+02  0.59076401784E+02  0.61317166136E+02  0.00000000000E+00 0.  1.
<mgrwt>
<rscale>  0 0.91211428E+02</rscale>
<asrwt>0</asrwt>
<pdfrwt beam="1">  1        1 0.17843350E-01 0.91211428E+02</pdfrwt>
<pdfrwt beam="2">  1       -1 0.27588965E-02 0.91211428E+02</pdfrwt>
<totfact> 0.10699551E+05</totfact>
</mgrwt>
</event>
<event>
 7    1  0.3565607E-009  0.9199402E+02  0.7818608E-02  0.1298093E+00
          1   -1    0    0  501    0  0.00000000000E+00  0.00000000000E+00  0.28861472155E+04  0.28861472155E+04  0.50400000000E-02 0. -1.
         -1   -1    0    0    0  501 -0.00000000000E+00 -0.00000000000E+00 -0.73305335190E+00  0.73307067759E+00  0.50400000000E-02 0.  1.
         23    2    1    2    0    0  0.17763568394E-14 -0.17763568394E-14  0.28854141622E+04  0.28868802862E+04  0.91994019487E+02 0.  0.
    9000005    2    3    3    0    0  0.84676074662E+01 -0.14327390358E+02  0.27872710741E+04  0.27873361240E+04  0.92549019730E+01 0.  0.
         22    1    3    3    0    0 -0.84676074662E+01  0.14327390358E+02  0.98143088019E+02  0.99544162142E+02  0.00000000000E+00 0.  1.
         22    1    4    4    0    0 -0.16240440932E+00 -0.28189285206E+01  0.15480789118E+03  0.15483363945E+03  0.00000000000E+00 0. -1.
         22    1    4    4    0    0  0.86300118755E+01 -0.11508461837E+02  0.26324631830E+04  0.26325024846E+04  0.00000000000E+00 0. -1.
<mgrwt>
<rscale>  0 0.91994019E+02</rscale>
<asrwt>0</asrwt>
<pdfrwt beam="1">  1        1 0.44402676E+00 0.91994019E+02</pdfrwt>
<pdfrwt beam="2">  1       -1 0.11277773E-03 0.91994019E+02</pdfrwt>
<totfact> 0.34736840E+04</totfact>
</mgrwt>
</event>
<event>
 7    1  0.6751624E-009  0.9164139E+02  0.7818608E-02  0.1298925E+00
         -1   -1    0    0    0  501 -0.00000000000E+00  0.00000000000E+00  0.11352566011E+02  0.11352567130E+02  0.50400000000E-02 0.  1.
          1   -1    0    0  501    0  0.00000000000E+00 -0.00000000000E+00 -0.18493934273E+03  0.18493934279E+03  0.50400000000E-02 0. -1.
         23    2    1    2    0    0  0.00000000000E+00 -0.35527136788E-14 -0.17358677672E+03  0.19629190992E+03  0.91641392676E+02 0.  0.
    9000005    2    3    3    0    0  0.16004951398E+02  0.25021865264E+02 -0.18199150764E+02  0.38090877977E+02  0.15409532310E+02 0.  0.
         22    1    3    3    0    0 -0.16004951398E+02 -0.25021865264E+02 -0.15538762595E+03  0.15820103195E+03  0.00000000000E+00 0. -1.
         22    1    4    4    0    0  0.18187777390E+02  0.18058060241E+02 -0.16840931771E+02  0.30667666507E+02  0.00000000000E+00 0.  1.
         22    1    4    4    0    0 -0.21828259920E+01  0.69638050223E+01 -0.13582189930E+01  0.74232114703E+01  0.00000000000E+00 0.  1.
<mgrwt>
<rscale>  0 0.91641393E+02</rscale>
<asrwt>0</asrwt>
<pdfrwt beam="2">  1        1 0.28452204E-01 0.91641393E+02</pdfrwt>
<pdfrwt beam="1">  1       -1 0.17465488E-02 0.91641393E+02</pdfrwt>
<totfact> 0.11504694E+05</totfact>
</mgrwt>
</event>
<event>
 7    1  0.3565607E-009  0.9142804E+02  0.7818608E-02  0.1299430E+00
         -1   -1    0    0    0  501 -0.00000000000E+00  0.00000000000E+00  0.33853399110E+02  0.33853399485E+02  0.50400000000E-02 0.  1.
          1   -1    0    0  501    0  0.00000000000E+00 -0.00000000000E+00 -0.61730043213E+02  0.61730043419E+02  0.50400000000E-02 0. -1.
         23    2    1    2    0    0  0.00000000000E+00  0.00000000000E+00 -0.27876644103E+02  0.95583442904E+02  0.91428044226E+02 0.  0.
    9000005    2    3    3    0    0  0.11263234390E+02 -0.33988009643E+02  0.15166044164E+02  0.39594888166E+02  0.74633119261E+01 0.  0.
         22    1    3    3    0    0 -0.11263234390E+02  0.33988009643E+02 -0.43042688267E+02  0.55988554738E+02  0.00000000000E+00 0. -1.
         22    1    4    4    0    0  0.43135156884E+01 -0.15931473605E+02  0.10908539712E+02  0.19784198429E+02  0.00000000000E+00 0. -1.
         22    1    4    4    0    0  0.69497187018E+01 -0.18056536038E+02  0.42575044521E+01  0.19810689738E+02  0.00000000000E+00 0. -1.
<mgrwt>
<rscale>  0 0.91428044E+02</rscale>
<asrwt>0</asrwt>
<pdfrwt beam="2">  1        1 0.94969298E-02 0.91428044E+02</pdfrwt>
<pdfrwt beam="1">  1       -1 0.52082153E-02 0.91428044E+02</pdfrwt>
<totfact> 0.96051434E+04</totfact>
</mgrwt>
</event>
<event>
 6    1  0.3565607E-009  0.2674293E+03  0.7818608E-02  0.1102760E+00
         -1   -1    0    0    0  501 -0.00000000000E+00  0.00000000000E+00  0.39963964074E+02  0.39963964392E+02  0.50400000000E-02 0.  1.
          1   -1    0    0  501    0  0.00000000000E+00 -0.00000000000E+00 -0.44739340221E+03  0.44739340224E+03  0.50400000000E-02 0. -1.
    9000005    2    1    2    0    0  0.13115587687E+03 -0.15930144808E+02 -0.23893339990E+03  0.27323929534E+03  0.10719579148E+02 0.  0.
         22    1    1    2    0    0 -0.13115587687E+03  0.15930144808E+02 -0.16849603823E+03  0.21411807129E+03  0.00000000000E+00 0.  1.
         22    1    3    3    0    0  0.10913599991E+03 -0.10416925375E+02 -0.19171370813E+03  0.22084683538E+03  0.00000000000E+00 0. -1.
         22    1    3    3    0    0  0.22019876960E+02 -0.55132194334E+01 -0.47219691773E+02  0.52392459963E+02  0.00000000000E+00 0. -1.
<mgrwt>
<rscale>  0 0.26742935E+03</rscale>
<asrwt>0</asrwt>
<pdfrwt beam="2">  1        1 0.68829750E-01 0.26742935E+03</pdfrwt>
<pdfrwt beam="1">  1       -1 0.61483025E-02 0.26742935E+03</pdfrwt>
<totfact> 0.66941281E+03</totfact>
</mgrwt>
</event>
<event>
 7    1  0.3565607E-009  0.9557427E+02  0.7818608E-02  0.1289888E+00
          1   -1    0    0  501    0  0.00000000000E+00  0.00000000000E+00  0.46677070379E+02  0.46677070651E+02  0.50400000000E-02 0. -1.
         -1   -1    0    0    0  501 -0.00000000000E+00 -0.00000000000E+00 -0.48923595287E+02  0.48923595547E+02  0.50400000000E-02 0.  1.
         23    2    1    2    0    0  0.00000000000E+00  0.00000000000E+00 -0.22465249079E+01  0.95600666198E+02  0.95574266951E+02 0.  0.
    9000005    2    3    3    0    0  0.34973831427E+02 -0.11566799906E+02 -0.30640531167E+02  0.49090674408E+02  0.10681405285E+02 0.  0.
         22    1    3    3    0    0 -0.34973831427E+02  0.11566799906E+02  0.28394006260E+02  0.46509991789E+02  0.00000000000E+00 0. -1.
         22    1    4    4    0    0  0.16563705369E+02 -0.71065553808E+01 -0.21507443214E+02  0.28061175644E+02  0.00000000000E+00 0. -1.
         22    1    4    4    0    0  0.18410126058E+02 -0.44602445248E+01 -0.91330879539E+01  0.21029498764E+02  0.00000000000E+00 0. -1.
<mgrwt>
<rscale>  0 0.95574267E+02</rscale>
<asrwt>0</asrwt>
<pdfrwt beam="1">  1        1 0.71810878E-02 0.95574267E+02</pdfrwt>
<pdfrwt beam="2">  1       -1 0.75267070E-02 0.95574267E+02</pdfrwt>
<totfact> 0.81268753E+04</totfact>
</mgrwt>
</event>
<event>
 7    1  0.3565607E-009  0.9205532E+02  0.7818608E-02  0.1297949E+00
         -1   -1    0    0    0  501 -0.00000000000E+00  0.00000000000E+00  0.10492428793E+04  0.10492428793E+04  0.50400000000E-02 0.  1.
          1   -1    0    0  501    0  0.00000000000E+00 -0.00000000000E+00 -0.20191151639E+01  0.20191214541E+01  0.50400000000E-02 0. -1.
         23    2    1    2    0    0  0.00000000000E+00  0.00000000000E+00  0.10472237642E+04  0.10512620008E+04  0.92055320780E+02 0.  0.
    9000005    2    3    3    0    0  0.37286240061E+02 -0.51274320907E+01  0.82134790720E+03  0.82227192019E+03  0.10108007061E+02 0.  0.
         22    1    3    3    0    0 -0.37286240061E+02  0.51274320907E+01  0.22587585697E+03  0.22899008061E+03  0.00000000000E+00 0. -1.
         22    1    4    4    0    0  0.15939811086E+02 -0.53966557672E+01  0.28199967888E+03  0.28250136347E+03  0.00000000000E+00 0.  1.
         22    1    4    4    0    0  0.21346428975E+02  0.26922367653E+00  0.53934822832E+03  0.53977055672E+03  0.00000000000E+00 0.  1.
<mgrwt>
<rscale>  0 0.92055321E+02</rscale>
<asrwt>0</asrwt>
<pdfrwt beam="2">  1        1 0.31063395E-03 0.92055321E+02</pdfrwt>
<pdfrwt beam="1">  1       -1 0.16142180E+00 0.92055321E+02</pdfrwt>
<totfact> 0.23556298E+04</totfact>
</mgrwt>
</event>
<event>
 7    1  0.3565607E-009  0.9682092E+02  0.7818608E-02  0.1287127E+00
         -1   -1    0    0    0  501 -0.00000000000E+00  0.00000000000E+00  0.13014299018E+02  0.13014299994E+02  0.50400000000E-02 0.  1.
          1   -1    0    0  501    0  0.00000000000E+00 -0.00000000000E+00 -0.18007674993E+03  0.18007675000E+03  0.50400000000E-02 0. -1.
         23    2    1    2    0    0 -0.35527136788E-14  0.71054273576E-14 -0.16706245091E+03  0.19309104999E+03  0.96820922755E+02 0.  0.
    9000005    2    3    3    0    0 -0.20795467601E+02  0.37970124908E+02 -0.47823668203E+02  0.66236530327E+02  0.15033058608E+02 0.  0.
         22    1    3    3    0    0  0.20795467601E+02 -0.37970124908E+02 -0.11923878270E+03  0.12685451966E+03  0.00000000000E+00 0. -1.
         22    1    4    4    0    0 -0.18894814276E+02  0.23253832689E+02 -0.25046368155E+02  0.39052212473E+02  0.00000000000E+00 0.  1.
         22    1    4    4    0    0 -0.19006533252E+01  0.14716292218E+02 -0.22777300048E+02  0.27184317854E+02  0.00000000000E+00 0.  1.
<mgrwt>
<rscale>  0 0.96820923E+02</rscale>
<asrwt>0</asrwt>
<pdfrwt beam="2">  1        1 0.27704114E-01 0.96820923E+02</pdfrwt>
<pdfrwt beam="1">  1       -1 0.20022001E-02 0.96820923E+02</pdfrwt>
<totfact> 0.98676425E+04</totfact>
</mgrwt>
</event>
<event>
 7    1  0.3565607E-009  0.9422760E+02  0.7818608E-02  0.1292925E+00
          1   -1    0    0  501    0  0.00000000000E+00  0.00000000000E+00  0.90658580416E+02  0.90658580556E+02  0.50400000000E-02 0. -1.
         -1   -1    0    0    0  501 -0.00000000000E+00 -0.00000000000E+00 -0.24484278507E+02  0.24484279025E+02  0.50400000000E-02 0.  1.
         23    2    1    2    0    0  0.00000000000E+00  0.00000000000E+00  0.66174301910E+02  0.11514285958E+03  0.94227596167E+02 0.  0.
    9000005    2    3    3    0    0 -0.99465879990E+01 -0.18475760028E+02 -0.17242058395E+02  0.29127875492E+02  0.10528828596E+02 0.  0.
         22    1    3    3    0    0  0.99465879990E+01  0.18475760028E+02  0.83416360304E+02  0.86014984089E+02  0.00000000000E+00 0. -1.
         22    1    4    4    0    0 -0.92113420933E+01 -0.11354290797E+02 -0.16316727103E+02  0.21909001027E+02  0.00000000000E+00 0.  1.
         22    1    4    4    0    0 -0.73524590573E+00 -0.71214692309E+01 -0.92533129205E+00  0.72188744655E+01  0.00000000000E+00 0.  1.
<mgrwt>
<rscale>  0 0.94227596E+02</rscale>
<asrwt>0</asrwt>
<pdfrwt beam="1">  1        1 0.13947474E-01 0.94227596E+02</pdfrwt>
<pdfrwt beam="2">  1       -1 0.37668121E-02 0.94227596E+02</pdfrwt>
<totfact> 0.93911509E+04</totfact>
</mgrwt>
</event>
<event>
 6    1  0.5833345E-009  0.1567465E+03  0.7818608E-02  0.1192420E+00
         -1   -1    0    0    0  501 -0.00000000000E+00  0.00000000000E+00  0.14141781349E+02  0.14141782247E+02  0.50400000000E-02 0.  1.
          1   -1    0    0  501    0  0.00000000000E+00 -0.00000000000E+00 -0.43434151193E+03  0.43434151196E+03  0.50400000000E-02 0. -1.
    9000005    2    1    2    0    0 -0.75559289177E+02 -0.18365249291E+02 -0.22089539561E+03  0.23454707357E+03  0.13079195530E+02 0.  0.
         22    1    1    2    0    0  0.75559289177E+02  0.18365249291E+02 -0.19930433498E+03  0.21393622064E+03  0.00000000000E+00 0.  1.
         22    1    3    3    0    0 -0.26542373978E+02 -0.82121662880E+01 -0.97599469922E+02  0.10147706056E+03  0.00000000000E+00 0. -1.
         22    1    3    3    0    0 -0.49016915199E+02 -0.10153083003E+02 -0.12329592569E+03  0.13307001300E+03  0.00000000000E+00 0. -1.
<mgrwt>
<rscale>  0 0.15674646E+03</rscale>
<asrwt>0</asrwt>
<pdfrwt beam="2">  1        1 0.66821761E-01 0.15674646E+03</pdfrwt>
<pdfrwt beam="1">  1       -1 0.21756591E-02 0.15674646E+03</pdfrwt>
<totfact> 0.31178715E+04</totfact>
</mgrwt>
</event>
<event>
 7    1  0.3565607E-009  0.7591416E+02  0.7818608E-02  0.1341063E+00
          1   -1    0    0  501    0  0.00000000000E+00  0.00000000000E+00  0.11060291128E+03  0.11060291140E+03  0.50400000000E-02 0. -1.
         -1   -1    0    0    0  501 -0.00000000000E+00 -0.00000000000E+00 -0.13026237287E+02  0.13026238262E+02  0.50400000000E-02 0.  1.
         23    2    1    2    0    0  0.00000000000E+00  0.00000000000E+00  0.97576673996E+02  0.12362914966E+03  0.75914157688E+02 0.  0.
    9000005    2    3    3    0    0 -0.90246214583E+01 -0.24964032477E+02  0.92473234874E+02  0.96597838170E+02  0.86715893107E+01 0.  0.
         22    1    3    3    0    0  0.90246214583E+01  0.24964032477E+02  0.51034391216E+01  0.27031311489E+02  0.00000000000E+00 0.  1.
         22    1    4    4    0    0 -0.29269315989E+01 -0.10256034129E+01  0.77753079667E+01  0.83710336830E+01  0.00000000000E+00 0.  1.
         22    1    4    4    0    0 -0.60976898594E+01 -0.23938429064E+02  0.84697926907E+02  0.88226804487E+02  0.00000000000E+00 0.  1.
<mgrwt>
<rscale>  0 0.75914158E+02</rscale>
<asrwt>0</asrwt>
<pdfrwt beam="1">  1        1 0.17015832E-01 0.75914158E+02</pdfrwt>
<pdfrwt beam="2">  1       -1 0.20040366E-02 0.75914158E+02</pdfrwt>
<totfact> 0.17378204E+05</totfact>
</mgrwt>
</event>
<event>
 7    1  0.3565607E-009  0.9033410E+02  0.7818608E-02  0.1302045E+00
         -1   -1    0    0    0  501 -0.00000000000E+00  0.00000000000E+00  0.38159114848E+02  0.38159115181E+02  0.50400000000E-02 0.  1.
          1   -1    0    0  501    0  0.00000000000E+00 -0.00000000000E+00 -0.53461995928E+02  0.53461996166E+02  0.50400000000E-02 0. -1.
         23    2    1    2    0    0  0.35527136788E-14  0.00000000000E+00 -0.15302881080E+02  0.91621111347E+02  0.90334101396E+02 0.  0.
    9000005    2    3    3    0    0 -0.24946245277E+02 -0.27232964736E+02  0.16765523462E+02  0.42709639363E+02  0.13382114776E+02 0.  0.
         22    1    3    3    0    0  0.24946245277E+02  0.27232964736E+02 -0.32068404542E+02  0.48911471983E+02  0.00000000000E+00 0. -1.
         22    1    4    4    0    0 -0.25566009813E+02 -0.27658431545E+02  0.17610967586E+02  0.41578310122E+02  0.00000000000E+00 0. -1.
         22    1    4    4    0    0  0.61976453550E+00  0.42546680959E+00 -0.84544412404E+00  0.11313292414E+01  0.00000000000E+00 0. -1.
<mgrwt>
<rscale>  0 0.90334101E+02</rscale>
<asrwt>0</asrwt>
<pdfrwt beam="2">  1        1 0.82249225E-02 0.90334101E+02</pdfrwt>
<pdfrwt beam="1">  1       -1 0.58706331E-02 0.90334101E+02</pdfrwt>
<totfact> 0.97190214E+04</totfact>
</mgrwt>
</event>
<event>
 7    1  0.3565607E-009  0.9107143E+02  0.7818608E-02  0.1300278E+00
          1   -1    0    0  501    0  0.00000000000E+00  0.00000000000E+00  0.11215175015E+04  0.11215175015E+04  0.50400000000E-02 0. -1.
         -1   -1    0    0    0  501 -0.00000000000E+00 -0.00000000000E+00 -0.18488321559E+01  0.18488390256E+01  0.50400000000E-02 0.  1.
         23    2    1    2    0    0  0.00000000000E+00 -0.17763568394E-14  0.11196686694E+04  0.11233663406E+04  0.91071433176E+02 0.  0.
    9000005    2    3    3    0    0 -0.10806256675E+02  0.11557039357E+02  0.10855427815E+04  0.10857509639E+04  0.14201573589E+02 0.  0.
         22    1    3    3    0    0  0.10806256675E+02 -0.11557039357E+02  0.34125887824E+02  0.37615376666E+02  0.00000000000E+00 0.  1.
         22    1    4    4    0    0 -0.79041416962E+01  0.14039732053E+02  0.99115939765E+03  0.99129034146E+03  0.00000000000E+00 0. -1.
         22    1    4    4    0    0 -0.29021149784E+01 -0.24826926960E+01  0.94383383895E+02  0.94460622430E+02  0.00000000000E+00 0. -1.
<mgrwt>
<rscale>  0 0.91071433E+02</rscale>
<asrwt>0</asrwt>
<pdfrwt beam="1">  1        1 0.17254178E+00 0.91071433E+02</pdfrwt>
<pdfrwt beam="2">  1       -1 0.28443522E-03 0.91071433E+02</pdfrwt>
<totfact> 0.13144316E+05</totfact>
</mgrwt>
</event>
<event>
 7    1  0.3565607E-009  0.8784736E+02  0.7818608E-02  0.1308150E+00
         -1   -1    0    0    0  501 -0.00000000000E+00  0.00000000000E+00  0.29193620782E+02  0.29193621217E+02  0.50400000000E-02 0.  1.
          1   -1    0    0  501    0  0.00000000000E+00 -0.00000000000E+00 -0.66086001774E+02  0.66086001966E+02  0.50400000000E-02 0. -1.
         23    2    1    2    0    0  0.00000000000E+00  0.35527136788E-14 -0.36892380991E+02  0.95279623183E+02  0.87847360909E+02 0.  0.
    9000005    2    3    3    0    0 -0.85935498677E+01 -0.24176577545E+02 -0.55858852574E+02  0.63372209539E+02  0.15410046395E+02 0.  0.
         22    1    3    3    0    0  0.85935498677E+01  0.24176577545E+02  0.18966471583E+02  0.31907413644E+02  0.00000000000E+00 0.  1.
         22    1    4    4    0    0 -0.51649823132E+01  0.23673467338E+00 -0.77817908946E+01  0.93428772404E+01  0.00000000000E+00 0. -1.
         22    1    4    4    0    0 -0.34285675544E+01 -0.24413312219E+02 -0.48077061679E+02  0.54029332299E+02  0.00000000000E+00 0. -1.
<mgrwt>
<rscale>  0 0.87847361E+02</rscale>
<asrwt>0</asrwt>
<pdfrwt beam="2">  1        1 0.10167077E-01 0.87847361E+02</pdfrwt>
<pdfrwt beam="1">  1       -1 0.44913263E-02 0.87847361E+02</pdfrwt>
<totfact> 0.10834843E+05</totfact>
</mgrwt>
</event>
<event>
 7    1  0.3565607E-009  0.9507579E+02  0.7818608E-02  0.1291005E+00
          1   -1    0    0  501    0  0.00000000000E+00  0.00000000000E+00  0.43753941732E+02  0.43753942022E+02  0.50400000000E-02 0.  1.
         -1   -1    0    0    0  501 -0.00000000000E+00 -0.00000000000E+00 -0.51649092688E+02  0.51649092934E+02  0.50400000000E-02 0. -1.
         23    2    1    2    0    0  0.35527136788E-14 -0.22204460493E-15 -0.78951509561E+01  0.95403034955E+02  0.95075789085E+02 0.  0.
    9000005    2    3    3    0    0  0.22767671399E+02 -0.14169067874E+01  0.37290931436E+02  0.44785285818E+02  0.97331275907E+01 0.  0.
         22    1    3    3    0    0 -0.22767671399E+02  0.14169067874E+01 -0.45186082392E+02  0.50617749137E+02  0.00000000000E+00 0. -1.
         22    1    4    4    0    0  0.20756230800E+02 -0.41257240361E+01  0.29600148258E+02  0.36386968721E+02  0.00000000000E+00 0. -1.
         22    1    4    4    0    0  0.20114405991E+01  0.27088172487E+01  0.76907831778E+01  0.83983170968E+01  0.00000000000E+00 0. -1.
<mgrwt>
<rscale>  0 0.95075789E+02</rscale>
<asrwt>0</asrwt>
<pdfrwt beam="1">  1        1 0.67313757E-02 0.95075789E+02</pdfrwt>
<pdfrwt beam="2">  1       -1 0.79460143E-02 0.95075789E+02</pdfrwt>
<totfact> 0.81650418E+04</totfact>
</mgrwt>
</event>
<event>
 7    1  0.3565607E-009  0.9188446E+02  0.7818608E-02  0.1298351E+00
          1   -1    0    0  501    0  0.00000000000E+00  0.00000000000E+00  0.13920338951E+03  0.13920338960E+03  0.50400000000E-02 0. -1.
         -1   -1    0    0    0  501 -0.00000000000E+00 -0.00000000000E+00 -0.15162621643E+02  0.15162622481E+02  0.50400000000E-02 0.  1.
         23    2    1    2    0    0 -0.35527136788E-14  0.35527136788E-14  0.12404076787E+03  0.15436601208E+03  0.91884457844E+02 0.  0.
    9000005    2    3    3    0    0 -0.23861667025E+02  0.28741052352E+02  0.10557026760E+03  0.11269363966E+03  0.12623302841E+02 0.  0.
         22    1    3    3    0    0  0.23861667025E+02 -0.28741052352E+02  0.18470500270E+02  0.41672372428E+02  0.00000000000E+00 0.  1.
         22    1    4    4    0    0 -0.22156778481E+02  0.21405242970E+02  0.93710348574E+02  0.98644496497E+02  0.00000000000E+00 0.  1.
         22    1    4    4    0    0 -0.17048885441E+01  0.73358093828E+01  0.11859919024E+02  0.14049143159E+02  0.00000000000E+00 0.  1.
<mgrwt>
<rscale>  0 0.91884458E+02</rscale>
<asrwt>0</asrwt>
<pdfrwt beam="1">  1        1 0.21415906E-01 0.91884458E+02</pdfrwt>
<pdfrwt beam="2">  1       -1 0.23327111E-02 0.91884458E+02</pdfrwt>
<totfact> 0.10832574E+05</totfact>
</mgrwt>
</event>
<event>
 7    1  0.3565607E-009  0.9145438E+02  0.7818608E-02  0.1299367E+00
         -1   -1    0    0    0  501 -0.00000000000E+00  0.00000000000E+00  0.42442480789E+01  0.42442510713E+01  0.50400000000E-02 0.  1.
          1   -1    0    0  501    0  0.00000000000E+00 -0.00000000000E+00 -0.49266095351E+03  0.49266095353E+03  0.50400000000E-02 0. -1.
         23    2    1    2    0    0  0.00000000000E+00  0.44408920985E-15 -0.48841670543E+03  0.49690520460E+03  0.91454383281E+02 0.  0.
    9000005    2    3    3    0    0 -0.13460664859E+02  0.32546010805E+01 -0.48094285441E+03  0.48116861108E+03  0.50419398019E+01 0.  0.
         22    1    3    3    0    0  0.13460664859E+02 -0.32546010805E+01 -0.74738510199E+01  0.15736593523E+02  0.00000000000E+00 0.  1.
         22    1    4    4    0    0 -0.19617251630E+01  0.22837168260E+01 -0.71886896721E+02  0.71949910690E+02  0.00000000000E+00 0.  1.
         22    1    4    4    0    0 -0.11498939696E+02  0.97088425451E+00 -0.40905595769E+03  0.40921870039E+03  0.00000000000E+00 0.  1.
<mgrwt>
<rscale>  0 0.91454383E+02</rscale>
<asrwt>0</asrwt>
<pdfrwt beam="2">  1        1 0.75793948E-01 0.91454383E+02</pdfrwt>
<pdfrwt beam="1">  1       -1 0.65296186E-03 0.91454383E+02</pdfrwt>
<totfact> 0.13790240E+05</totfact>
</mgrwt>
</event>
<event>
 7    1  0.3565607E-009  0.9144093E+02  0.7818608E-02  0.1299399E+00
         -1   -1    0    0    0  501 -0.00000000000E+00  0.00000000000E+00  0.18317347390E+01  0.18317416727E+01  0.50400000000E-02 0.  1.
          1   -1    0    0  501    0  0.00000000000E+00 -0.00000000000E+00 -0.11411898618E+04  0.11411898618E+04  0.50400000000E-02 0. -1.
         23    2    1    2    0    0  0.00000000000E+00 -0.35527136788E-14 -0.11393581271E+04  0.11430216035E+04  0.91440933563E+02 0.  0.
    9000005    2    3    3    0    0 -0.23202868218E+02 -0.24179521321E+02 -0.95685466525E+03  0.95746693252E+03  0.70038637341E+01 0.  0.
         22    1    3    3    0    0  0.23202868218E+02  0.24179521321E+02 -0.18250346184E+03  0.18555467099E+03  0.00000000000E+00 0.  1.
         22    1    4    4    0    0 -0.65271016511E+01 -0.11618910374E+02 -0.35288197265E+03  0.35313352823E+03  0.00000000000E+00 0. -1.
         22    1    4    4    0    0 -0.16675766567E+02 -0.12560610947E+02 -0.60397269260E+03  0.60433340429E+03  0.00000000000E+00 0. -1.
<mgrwt>
<rscale>  0 0.91440934E+02</rscale>
<asrwt>0</asrwt>
<pdfrwt beam="2">  1        1 0.17556710E+00 0.91440934E+02</pdfrwt>
<pdfrwt beam="1">  1       -1 0.28180679E-03 0.91440934E+02</pdfrwt>
<totfact> 0.12914805E+05</totfact>
</mgrwt>
</event>
<event>
 7    1  0.3565607E-009  0.9187259E+02  0.7818608E-02  0.1298379E+00
         -1   -1    0    0    0  501 -0.00000000000E+00  0.00000000000E+00  0.26027104542E+01  0.26027153340E+01  0.50400000000E-02 0.  1.
          1   -1    0    0  501    0  0.00000000000E+00 -0.00000000000E+00 -0.81074755474E+03  0.81074755475E+03  0.50400000000E-02 0. -1.
         23    2    1    2    0    0 -0.88817841970E-15  0.00000000000E+00 -0.80814484428E+03  0.81335027009E+03  0.91872588454E+02 0.  0.
    9000005    2    3    3    0    0  0.79095794473E+01  0.41170328886E+02 -0.56668742898E+03  0.56828040080E+03  0.71003057332E+01 0.  0.
         22    1    3    3    0    0 -0.79095794473E+01 -0.41170328886E+02 -0.24145741531E+03  0.24506986929E+03  0.00000000000E+00 0. -1.
         22    1    4    4    0    0  0.49717581792E+01  0.14082745209E+02 -0.23624108282E+03  0.23671267669E+03  0.00000000000E+00 0. -1.
         22    1    4    4    0    0  0.29378212681E+01  0.27087583678E+02 -0.33044634616E+03  0.33156772411E+03  0.00000000000E+00 0. -1.
<mgrwt>
<rscale>  0 0.91872588E+02</rscale>
<asrwt>0</asrwt>
<pdfrwt beam="2">  1        1 0.12473019E+00 0.91872588E+02</pdfrwt>
<pdfrwt beam="1">  1       -1 0.40041802E-03 0.91872588E+02</pdfrwt>
<totfact> 0.13831684E+05</totfact>
</mgrwt>
</event>
<event>
 7    1  0.3565607E-009  0.9142185E+02  0.7818608E-02  0.1299445E+00
         -1   -1    0    0    0  501 -0.00000000000E+00  0.00000000000E+00  0.36224137030E+02  0.36224137381E+02  0.50400000000E-02 0.  1.
          1   -1    0    0  501    0  0.00000000000E+00 -0.00000000000E+00 -0.57682224427E+02  0.57682224647E+02  0.50400000000E-02 0. -1.
         23    2    1    2    0    0  0.88817841970E-15 -0.88817841970E-15 -0.21458087397E+02  0.93906362028E+02  0.91421853594E+02 0.  0.
    9000005    2    3    3    0    0  0.78698328160E+01 -0.73347791012E+01 -0.55309185347E+02  0.58386929523E+02  0.15303408196E+02 0.  0.
         22    1    3    3    0    0 -0.78698328160E+01  0.73347791012E+01  0.33851097950E+02  0.35519432505E+02  0.00000000000E+00 0.  1.
         22    1    4    4    0    0 -0.23835959728E+01  0.14697580370E+01 -0.21328773718E+01  0.35200687965E+01  0.00000000000E+00 0.  1.
         22    1    4    4    0    0  0.10253428789E+02 -0.88045371383E+01 -0.53176307975E+02  0.54866860727E+02  0.00000000000E+00 0.  1.
<mgrwt>
<rscale>  0 0.91421854E+02</rscale>
<asrwt>0</asrwt>
<pdfrwt beam="2">  1        1 0.88741884E-02 0.91421854E+02</pdfrwt>
<pdfrwt beam="1">  1       -1 0.55729442E-02 0.91421854E+02</pdfrwt>
<totfact> 0.95086965E+04</totfact>
</mgrwt>
</event>
<event>
 7    1  0.5894048E-009  0.9047881E+02  0.7818608E-02  0.1301696E+00
         -1   -1    0    0    0  501 -0.00000000000E+00  0.00000000000E+00  0.54380681933E+01  0.54380705289E+01  0.50400000000E-02 0.  1.
          1   -1    0    0  501    0  0.00000000000E+00 -0.00000000000E+00 -0.37634745757E+03  0.37634745761E+03  0.50400000000E-02 0. -1.
         23    2    1    2    0    0  0.35527136788E-14 -0.35527136788E-14 -0.37090938938E+03  0.38178552814E+03  0.90478806158E+02 0.  0.
    9000005    2    3    3    0    0  0.21604801987E+02 -0.18036565216E+02 -0.33347895299E+03  0.33495473995E+03  0.13942043416E+02 0.  0.
         22    1    3    3    0    0 -0.21604801987E+02  0.18036565216E+02 -0.37430436391E+02  0.46830788186E+02  0.00000000000E+00 0.  1.
         22    1    4    4    0    0  0.56044483971E+01 -0.11486944140E+02 -0.95969474546E+02  0.96816836202E+02  0.00000000000E+00 0. -1.
         22    1    4    4    0    0  0.16000353590E+02 -0.65496210755E+01 -0.23750947844E+03  0.23813790375E+03  0.00000000000E+00 0. -1.
<mgrwt>
<rscale>  0 0.90478806E+02</rscale>
<asrwt>0</asrwt>
<pdfrwt beam="2">  1        1 0.57899589E-01 0.90478806E+02</pdfrwt>
<pdfrwt beam="1">  1       -1 0.83662635E-03 0.90478806E+02</pdfrwt>
<totfact> 0.13626916E+05</totfact>
</mgrwt>
</event>
<event>
 7    1  0.3565607E-009  0.9115457E+02  0.7818608E-02  0.1300080E+00
         -1   -1    0    0    0  501 -0.00000000000E+00  0.00000000000E+00  0.11418965162E+02  0.11418966274E+02  0.50400000000E-02 0.  1.
          1   -1    0    0  501    0  0.00000000000E+00 -0.00000000000E+00 -0.18191567621E+03  0.18191567628E+03  0.50400000000E-02 0. -1.
         23    2    1    2    0    0 -0.35527136788E-14  0.35527136788E-14 -0.17049671104E+03  0.19333464255E+03  0.91154569458E+02 0.  0.
    9000005    2    3    3    0    0 -0.28742420100E+02  0.27929430040E+02 -0.44502400595E+02  0.61119870149E+02  0.12206354602E+02 0.  0.
         22    1    3    3    0    0  0.28742420100E+02 -0.27929430040E+02 -0.12599431045E+03  0.13221477240E+03  0.00000000000E+00 0. -1.
         22    1    4    4    0    0 -0.24904378372E+02  0.26849837484E+02 -0.34340054495E+02  0.50203398069E+02  0.00000000000E+00 0. -1.
         22    1    4    4    0    0 -0.38380417282E+01  0.10795925566E+01 -0.10162346100E+02  0.10916472079E+02  0.00000000000E+00 0. -1.
<mgrwt>
<rscale>  0 0.91154569E+02</rscale>
<asrwt>0</asrwt>
<pdfrwt beam="2">  1        1 0.27987025E-01 0.91154569E+02</pdfrwt>
<pdfrwt beam="1">  1       -1 0.17567641E-02 0.91154569E+02</pdfrwt>
<totfact> 0.11633792E+05</totfact>
</mgrwt>
</event>
<event>
 7    1  0.3565607E-009  0.9467872E+02  0.7818608E-02  0.1291901E+00
          1   -1    0    0  501    0  0.00000000000E+00  0.00000000000E+00  0.36695636368E+02  0.36695636714E+02  0.50400000000E-02 0. -1.
         -1   -1    0    0    0  501 -0.00000000000E+00 -0.00000000000E+00 -0.61070334048E+02  0.61070334256E+02  0.50400000000E-02 0.  1.
         23    2    1    2    0    0  0.00000000000E+00  0.00000000000E+00 -0.24374697680E+02  0.97765970970E+02  0.94678715626E+02 0.  0.
    9000005    2    3    3    0    0 -0.24252020042E+02 -0.32425232401E+02  0.10473663496E+02  0.44343462146E+02  0.14733934833E+02 0.  0.
         22    1    3    3    0    0  0.24252020042E+02  0.32425232401E+02 -0.34848361176E+02  0.53422508824E+02  0.00000000000E+00 0.  1.
         22    1    4    4    0    0 -0.13287771394E+02 -0.73398174583E+01  0.44227735169E+00  0.15186619051E+02  0.00000000000E+00 0.  1.
         22    1    4    4    0    0 -0.10964248648E+02 -0.25085414943E+02  0.10031386144E+02  0.29156843095E+02  0.00000000000E+00 0.  1.
<mgrwt>
<rscale>  0 0.94678716E+02</rscale>
<asrwt>0</asrwt>
<pdfrwt beam="1">  1        1 0.56454826E-02 0.94678716E+02</pdfrwt>
<pdfrwt beam="2">  1       -1 0.93954360E-02 0.94678716E+02</pdfrwt>
<totfact> 0.80364003E+04</totfact>
</mgrwt>
</event>
<event>
 7    1  0.3565607E-009  0.9144729E+02  0.7818608E-02  0.1299384E+00
         -1   -1    0    0    0  501 -0.00000000000E+00  0.00000000000E+00  0.91134367078E+01  0.91134381014E+01  0.50400000000E-02 0.  1.
          1   -1    0    0  501    0  0.00000000000E+00 -0.00000000000E+00 -0.22940319646E+03  0.22940319652E+03  0.50400000000E-02 0. -1.
         23    2    1    2    0    0 -0.35527136788E-14  0.00000000000E+00 -0.22028975976E+03  0.23851663462E+03  0.91447289393E+02 0.  0.
    9000005    2    3    3    0    0  0.19955342309E+02 -0.25387850102E+02 -0.19393017727E+03  0.19683227055E+03  0.95535570747E+01 0.  0.
         22    1    3    3    0    0 -0.19955342309E+02  0.25387850102E+02 -0.26359582486E+02  0.41684364074E+02  0.00000000000E+00 0.  1.
         22    1    4    4    0    0  0.21013692853E+02 -0.24566775656E+02 -0.18700269093E+03  0.18977646895E+03  0.00000000000E+00 0. -1.
         22    1    4    4    0    0 -0.10583505433E+01 -0.82107444560E+00 -0.69274863395E+01  0.70558015917E+01  0.00000000000E+00 0. -1.
<mgrwt>
<rscale>  0 0.91447289E+02</rscale>
<asrwt>0</asrwt>
<pdfrwt beam="2">  1        1 0.35292795E-01 0.91447289E+02</pdfrwt>
<pdfrwt beam="1">  1       -1 0.14020675E-02 0.91447289E+02</pdfrwt>
<totfact> 0.12065245E+05</totfact>
</mgrwt>
</event>
<event>
 7    1  0.3565607E-009  0.9065991E+02  0.7818608E-02  0.1301261E+00
          1   -1    0    0  501    0  0.00000000000E+00  0.00000000000E+00  0.17429272988E+03  0.17429272995E+03  0.50400000000E-02 0. -1.
         -1   -1    0    0    0  501 -0.00000000000E+00 -0.00000000000E+00 -0.11789389547E+02  0.11789390624E+02  0.50400000000E-02 0.  1.
         23    2    1    2    0    0 -0.71054273576E-14  0.35527136788E-14  0.16250334033E+03  0.18608212058E+03  0.90659913848E+02 0.  0.
    9000005    2    3    3    0    0  0.40497918755E+02 -0.19384878163E+02  0.80649118477E+02  0.92722768820E+02  0.87963982213E+01 0.  0.
         22    1    3    3    0    0 -0.40497918755E+02  0.19384878163E+02  0.81854221855E+02  0.93359351756E+02  0.00000000000E+00 0. -1.
         22    1    4    4    0    0  0.32994666062E+02 -0.11693902655E+02  0.62018513022E+02  0.71215807973E+02  0.00000000000E+00 0. -1.
         22    1    4    4    0    0  0.75032526926E+01 -0.76909755080E+01  0.18630605455E+02  0.21506960847E+02  0.00000000000E+00 0. -1.
<mgrwt>
<rscale>  0 0.90659914E+02</rscale>
<asrwt>0</asrwt>
<pdfrwt beam="1">  1        1 0.26814264E-01 0.90659914E+02</pdfrwt>
<pdfrwt beam="2">  1       -1 0.18137525E-02 0.90659914E+02</pdfrwt>
<totfact> 0.11709220E+05</totfact>
</mgrwt>
</event>
<event>
 7    1  0.3565607E-009  0.9314565E+02  0.7818608E-02  0.1295408E+00
          1   -1    0    0  501    0  0.00000000000E+00  0.00000000000E+00  0.17201319724E+02  0.17201320462E+02  0.50400000000E-02 0. -1.
         -1   -1    0    0    0  501 -0.00000000000E+00 -0.00000000000E+00 -0.12609659137E+03  0.12609659147E+03  0.50400000000E-02 0.  1.
         23    2    1    2    0    0  0.00000000000E+00  0.00000000000E+00 -0.10889527165E+03  0.14329791193E+03  0.93145646047E+02 0.  0.
    9000005    2    3    3    0    0 -0.41669386863E+01 -0.32382014870E+02 -0.10553416313E+03  0.11047634409E+03  0.12667880908E+01 0.  0.
         22    1    3    3    0    0  0.41669386863E+01  0.32382014870E+02 -0.33611085184E+01  0.32821567840E+02  0.00000000000E+00 0. -1.
         22    1    4    4    0    0 -0.36410697568E+01 -0.29637332091E+02 -0.97502326795E+02  0.10197221471E+03  0.00000000000E+00 0.  1.
         22    1    4    4    0    0 -0.52586892944E+00 -0.27446827783E+01 -0.80318363320E+01  0.85041293822E+01  0.00000000000E+00 0.  1.
<mgrwt>
<rscale>  0 0.93145646E+02</rscale>
<asrwt>0</asrwt>
<pdfrwt beam="1">  1        1 0.26463570E-02 0.93145646E+02</pdfrwt>
<pdfrwt beam="2">  1       -1 0.19399475E-01 0.93145646E+02</pdfrwt>
<totfact> 0.73541018E+04</totfact>
</mgrwt>
</event>
<event>
 7    1  0.3565607E-009  0.8771634E+02  0.7818608E-02  0.1308478E+00
         -1   -1    0    0    0  501 -0.00000000000E+00  0.00000000000E+00  0.28261082701E+02  0.28261083151E+02  0.50400000000E-02 0.  1.
          1   -1    0    0  501    0  0.00000000000E+00 -0.00000000000E+00 -0.68063178393E+02  0.68063178579E+02  0.50400000000E-02 0. -1.
         23    2    1    2    0    0  0.00000000000E+00  0.00000000000E+00 -0.39802095692E+02  0.96324261730E+02  0.87716341558E+02 0.  0.
    9000005    2    3    3    0    0  0.23844492948E+02  0.70842391373E+01 -0.58998145084E+02  0.64903972100E+02  0.10630060344E+02 0.  0.
         22    1    3    3    0    0 -0.23844492948E+02 -0.70842391373E+01  0.19196049393E+02  0.31420289629E+02  0.00000000000E+00 0.  1.
         22    1    4    4    0    0 -0.96771593770E+00  0.11658078684E+01 -0.40346193088E+01  0.43097256397E+01  0.00000000000E+00 0.  1.
         22    1    4    4    0    0  0.24812208886E+02  0.59184312689E+01 -0.54963525775E+02  0.60594246461E+02  0.00000000000E+00 0.  1.
<mgrwt>
<rscale>  0 0.87716342E+02</rscale>
<asrwt>0</asrwt>
<pdfrwt beam="2">  1        1 0.10471258E-01 0.87716342E+02</pdfrwt>
<pdfrwt beam="1">  1       -1 0.43478589E-02 0.87716342E+02</pdfrwt>
<totfact> 0.10927418E+05</totfact>
</mgrwt>
</event>
<event>
 7    1  0.3565607E-009  0.8839456E+02  0.7818608E-02  0.1306787E+00
         -1   -1    0    0    0  501 -0.00000000000E+00  0.00000000000E+00  0.12311546967E+02  0.12311547998E+02  0.50400000000E-02 0.  1.
          1   -1    0    0  501    0  0.00000000000E+00 -0.00000000000E+00 -0.15866399786E+03  0.15866399794E+03  0.50400000000E-02 0. -1.
         23    2    1    2    0    0  0.00000000000E+00  0.00000000000E+00 -0.14635245090E+03  0.17097554594E+03  0.88394555413E+02 0.  0.
    9000005    2    3    3    0    0 -0.38062389646E+02 -0.84119223406E+01 -0.41521414658E+02  0.59131672163E+02  0.15906628636E+02 0.  0.
         22    1    3    3    0    0  0.38062389646E+02  0.84119223406E+01 -0.10483103624E+03  0.11184387378E+03  0.00000000000E+00 0. -1.
         22    1    4    4    0    0 -0.28375404628E+02 -0.12977974533E+02 -0.28371138793E+02  0.42172419034E+02  0.00000000000E+00 0. -1.
         22    1    4    4    0    0 -0.96869850182E+01  0.45660521923E+01 -0.13150275864E+02  0.16959253128E+02  0.00000000000E+00 0. -1.
<mgrwt>
<rscale>  0 0.88394555E+02</rscale>
<asrwt>0</asrwt>
<pdfrwt beam="2">  1        1 0.24409844E-01 0.88394555E+02</pdfrwt>
<pdfrwt beam="1">  1       -1 0.18940843E-02 0.88394555E+02</pdfrwt>
<totfact> 0.12314357E+05</totfact>
</mgrwt>
</event>
<event>
 7    1  0.3565607E-009  0.9010250E+02  0.7818608E-02  0.1302604E+00
         -1   -1    0    0    0  501 -0.00000000000E+00  0.00000000000E+00  0.88565393779E+01  0.88565408119E+01  0.50400000000E-02 0.  1.
          1   -1    0    0  501    0  0.00000000000E+00 -0.00000000000E+00 -0.22916567945E+03  0.22916567951E+03  0.50400000000E-02 0. -1.
         23    2    1    2    0    0  0.00000000000E+00 -0.35527136788E-14 -0.22030914007E+03  0.23802222032E+03  0.90102498109E+02 0.  0.
    9000005    2    3    3    0    0 -0.15379650263E+02 -0.27988302007E+02 -0.31391492751E+02  0.46424318031E+02  0.12243888110E+02 0.  0.
         22    1    3    3    0    0  0.15379650263E+02  0.27988302007E+02 -0.18891764732E+03  0.19159790229E+03  0.00000000000E+00 0. -1.
         22    1    4    4    0    0 -0.71224374183E+01 -0.42406214525E+01 -0.38723290148E+01  0.91491484347E+01  0.00000000000E+00 0. -1.
         22    1    4    4    0    0 -0.82572128443E+01 -0.23747680554E+02 -0.27519163736E+02  0.37275169596E+02  0.00000000000E+00 0. -1.
<mgrwt>
<rscale>  0 0.90102498E+02</rscale>
<asrwt>0</asrwt>
<pdfrwt beam="2">  1        1 0.35256254E-01 0.90102498E+02</pdfrwt>
<pdfrwt beam="1">  1       -1 0.13625448E-02 0.90102498E+02</pdfrwt>
<totfact> 0.12550132E+05</totfact>
</mgrwt>
</event>
<event>
 7    1  0.3565607E-009  0.8862673E+02  0.7818608E-02  0.1306212E+00
         -1   -1    0    0    0  501 -0.00000000000E+00  0.00000000000E+00  0.27940109715E+02  0.27940110170E+02  0.50400000000E-02 0.  1.
          1   -1    0    0  501    0  0.00000000000E+00 -0.00000000000E+00 -0.70281548151E+02  0.70281548332E+02  0.50400000000E-02 0. -1.
         23    2    1    2    0    0  0.35527136788E-14  0.00000000000E+00 -0.42341438436E+02  0.98221658502E+02  0.88626727289E+02 0.  0.
    9000005    2    3    3    0    0  0.28974652571E+02  0.13736780878E+02  0.10017025512E+02  0.36824277552E+02  0.15081676850E+02 0.  0.
         22    1    3    3    0    0 -0.28974652571E+02 -0.13736780878E+02 -0.52358463948E+02  0.61397380950E+02  0.00000000000E+00 0. -1.
         22    1    4    4    0    0  0.17560224404E+02  0.10203350940E+02 -0.13210771359E+01  0.20352274967E+02  0.00000000000E+00 0. -1.
         22    1    4    4    0    0  0.11414428167E+02  0.35334299382E+01  0.11338102648E+02  0.16472002585E+02  0.00000000000E+00 0. -1.
<mgrwt>
<rscale>  0 0.88626727E+02</rscale>
<asrwt>0</asrwt>
<pdfrwt beam="2">  1        1 0.10812546E-01 0.88626727E+02</pdfrwt>
<pdfrwt beam="1">  1       -1 0.42984785E-02 0.88626727E+02</pdfrwt>
<totfact> 0.10673709E+05</totfact>
</mgrwt>
</event>
<event>
 7    1  0.3565607E-009  0.8577357E+02  0.7818608E-02  0.1313422E+00
          1   -1    0    0  501    0  0.00000000000E+00  0.00000000000E+00  0.26932514015E+02  0.26932514486E+02  0.50400000000E-02 0. -1.
         -1   -1    0    0    0  501 -0.00000000000E+00 -0.00000000000E+00 -0.68292040188E+02  0.68292040374E+02  0.50400000000E-02 0.  1.
         23    2    1    2    0    0  0.00000000000E+00  0.00000000000E+00 -0.41359526174E+02  0.95224554861E+02  0.85773570773E+02 0.  0.
    9000005    2    3    3    0    0 -0.11213445429E+02  0.15449360819E+02 -0.62627424417E+02  0.66645758459E+02  0.12451454668E+02 0.  0.
         22    1    3    3    0    0  0.11213445429E+02 -0.15449360819E+02  0.21267898244E+02  0.28578796402E+02  0.00000000000E+00 0. -1.
         22    1    4    4    0    0 -0.11461588615E+02  0.54013223152E+01 -0.32307338718E+02  0.34703118468E+02  0.00000000000E+00 0.  1.
         22    1    4    4    0    0  0.24814318645E+00  0.10048038503E+02 -0.30320085699E+02  0.31942639991E+02  0.00000000000E+00 0.  1.
<mgrwt>
<rscale>  0 0.85773571E+02</rscale>
<asrwt>0</asrwt>
<pdfrwt beam="1">  1        1 0.41434638E-02 0.85773571E+02</pdfrwt>
<pdfrwt beam="2">  1       -1 0.10506468E-01 0.85773571E+02</pdfrwt>
<totfact> 0.10149233E+05</totfact>
</mgrwt>
</event>
<event>
 7    1  0.3565607E-009  0.9244724E+02  0.7818608E-02  0.1297031E+00
         -1   -1    0    0    0  501 -0.00000000000E+00  0.00000000000E+00  0.76921361397E+02  0.76921361562E+02  0.50400000000E-02 0.  1.
          1   -1    0    0  501    0  0.00000000000E+00 -0.00000000000E+00 -0.27776718905E+02  0.27776719362E+02  0.50400000000E-02 0. -1.
         23    2    1    2    0    0  0.35527136788E-14  0.00000000000E+00  0.49144642492E+02  0.10469808092E+03  0.92447240432E+02 0.  0.
    9000005    2    3    3    0    0 -0.20648914112E+02 -0.13153681722E+02  0.68423310936E+02  0.73536180246E+02  0.11243812918E+02 0.  0.
         22    1    3    3    0    0  0.20648914112E+02  0.13153681722E+02 -0.19278668444E+02  0.31161900677E+02  0.00000000000E+00 0. -1.
         22    1    4    4    0    0 -0.79271447412E+01 -0.10673290182E+02  0.42860566204E+02  0.44875236850E+02  0.00000000000E+00 0.  1.
         22    1    4    4    0    0 -0.12721769371E+02 -0.24803915404E+01  0.25562744732E+02  0.28660943396E+02  0.00000000000E+00 0.  1.
<mgrwt>
<rscale>  0 0.92447240E+02</rscale>
<asrwt>0</asrwt>
<pdfrwt beam="2">  1        1 0.42733415E-02 0.92447240E+02</pdfrwt>
<pdfrwt beam="1">  1       -1 0.11834056E-01 0.92447240E+02</pdfrwt>
<totfact> 0.82244819E+04</totfact>
</mgrwt>
</event>
<event>
 7    1  0.3565607E-009  0.9175192E+02  0.7818608E-02  0.1298664E+00
         -1   -1    0    0    0  501 -0.00000000000E+00  0.00000000000E+00  0.16539419027E+03  0.16539419034E+03  0.50400000000E-02 0.  1.
          1   -1    0    0  501    0  0.00000000000E+00 -0.00000000000E+00 -0.12724772743E+02  0.12724773741E+02  0.50400000000E-02 0. -1.
         23    2    1    2    0    0  0.00000000000E+00  0.00000000000E+00  0.15266941752E+03  0.17811896408E+03  0.91751917253E+02 0.  0.
    9000005    2    3    3    0    0 -0.20027332861E+02  0.21904590092E+02  0.13648734450E+02  0.35965330818E+02  0.15043667776E+02 0.  0.
         22    1    3    3    0    0  0.20027332861E+02 -0.21904590092E+02  0.13902068307E+03  0.14215363327E+03  0.00000000000E+00 0.  1.
         22    1    4    4    0    0 -0.77103675466E+01  0.10638323812E+02 -0.17504574237E+01  0.13254727550E+02  0.00000000000E+00 0.  1.
         22    1    4    4    0    0 -0.12316965314E+02  0.11266266280E+02  0.15399191874E+02  0.22710603268E+02  0.00000000000E+00 0.  1.
<mgrwt>
<rscale>  0 0.91751917E+02</rscale>
<asrwt>0</asrwt>
<pdfrwt beam="2">  1        1 0.19576574E-02 0.91751917E+02</pdfrwt>
<pdfrwt beam="1">  1       -1 0.25445261E-01 0.91751917E+02</pdfrwt>
<totfact> 0.71857281E+04</totfact>
</mgrwt>
</event>
<event>
 7    1  0.3565607E-009  0.9108052E+02  0.7818608E-02  0.1300256E+00
         -1   -1    0    0    0  501 -0.00000000000E+00  0.00000000000E+00  0.85312064571E+02  0.85312064720E+02  0.50400000000E-02 0.  1.
          1   -1    0    0  501    0  0.00000000000E+00 -0.00000000000E+00 -0.24309754626E+02  0.24309755148E+02  0.50400000000E-02 0. -1.
         23    2    1    2    0    0 -0.71054273576E-14 -0.17763568394E-14  0.61002309946E+02  0.10962181987E+03  0.91080522465E+02 0.  0.
    9000005    2    3    3    0    0  0.39036161929E+02  0.12573718531E+02  0.51443081398E+02  0.67511260785E+02  0.15147916464E+02 0.  0.
         22    1    3    3    0    0 -0.39036161929E+02 -0.12573718531E+02  0.95592285474E+01  0.42110559083E+02  0.00000000000E+00 0. -1.
         22    1    4    4    0    0  0.38711028052E+02  0.10002160456E+02  0.51120711114E+02  0.64899260484E+02  0.00000000000E+00 0. -1.
         22    1    4    4    0    0  0.32513387739E+00  0.25715580753E+01  0.32237028461E+00  0.26120003011E+01  0.00000000000E+00 0. -1.
<mgrwt>
<rscale>  0 0.91080522E+02</rscale>
<asrwt>0</asrwt>
<pdfrwt beam="2">  1        1 0.37399623E-02 0.91080522E+02</pdfrwt>
<pdfrwt beam="1">  1       -1 0.13124933E-01 0.91080522E+02</pdfrwt>
<totfact> 0.83951541E+04</totfact>
</mgrwt>
</event>
<event>
 7    1  0.3565607E-009  0.9345154E+02  0.7818608E-02  0.1294702E+00
          1   -1    0    0  501    0  0.00000000000E+00  0.00000000000E+00  0.16200895346E+02  0.16200896130E+02  0.50400000000E-02 0. -1.
         -1   -1    0    0    0  501 -0.00000000000E+00 -0.00000000000E+00 -0.13476399503E+03  0.13476399512E+03  0.50400000000E-02 0.  1.
         23    2    1    2    0    0  0.00000000000E+00  0.00000000000E+00 -0.11856309968E+03  0.15096489125E+03  0.93451537091E+02 0.  0.
    9000005    2    3    3    0    0 -0.26276344755E+02 -0.10281414130E+02 -0.11857912562E+03  0.12274868976E+03  0.14494068949E+02 0.  0.
         22    1    3    3    0    0  0.26276344755E+02  0.10281414130E+02  0.16025930813E-01  0.28216201499E+02  0.00000000000E+00 0. -1.
         22    1    4    4    0    0 -0.17929199092E+02 -0.33156949244E+01 -0.48173254957E+02  0.51508373165E+02  0.00000000000E+00 0.  1.
         22    1    4    4    0    0 -0.83471456636E+01 -0.69657192053E+01 -0.70405870659E+02  0.71240316591E+02  0.00000000000E+00 0.  1.
<mgrwt>
<rscale>  0 0.93451537E+02</rscale>
<asrwt>0</asrwt>
<pdfrwt beam="1">  1        1 0.24924456E-02 0.93451537E+02</pdfrwt>
<pdfrwt beam="2">  1       -1 0.20732922E-01 0.93451537E+02</pdfrwt>
<totfact> 0.71878959E+04</totfact>
</mgrwt>
</event>
<event>
 7    1  0.3565607E-009  0.9054776E+02  0.7818608E-02  0.1301531E+00
          1   -1    0    0  501    0  0.00000000000E+00  0.00000000000E+00  0.46352678561E+02  0.46352678835E+02  0.50400000000E-02 0. -1.
         -1   -1    0    0    0  501 -0.00000000000E+00 -0.00000000000E+00 -0.44220189924E+02  0.44220190212E+02  0.50400000000E-02 0.  1.
         23    2    1    2    0    0  0.00000000000E+00  0.00000000000E+00  0.21324886370E+01  0.90572869047E+02  0.90547761428E+02 0.  0.
    9000005    2    3    3    0    0  0.14472543420E+01  0.43570052223E+02  0.67021999639E+01  0.46739933286E+02  0.15467963131E+02 0.  0.
         22    1    3    3    0    0 -0.14472543420E+01 -0.43570052223E+02 -0.45697113269E+01  0.43832935761E+02  0.00000000000E+00 0.  1.
         22    1    4    4    0    0 -0.37590115486E+00  0.85814191450E+01 -0.48302703888E+01  0.98546216695E+01  0.00000000000E+00 0. -1.
         22    1    4    4    0    0  0.18231554969E+01  0.34988633078E+02  0.11532470353E+02  0.36885311617E+02  0.00000000000E+00 0. -1.
<mgrwt>
<rscale>  0 0.90547761E+02</rscale>
<asrwt>0</asrwt>
<pdfrwt beam="1">  1        1 0.71311813E-02 0.90547761E+02</pdfrwt>
<pdfrwt beam="2">  1       -1 0.68031062E-02 0.90547761E+02</pdfrwt>
<totfact> 0.94519371E+04</totfact>
</mgrwt>
</event>
<event>
 7    1  0.3565607E-009  0.9455094E+02  0.7818608E-02  0.1292191E+00
          1   -1    0    0  501    0  0.00000000000E+00  0.00000000000E+00  0.61766207245E+02  0.61766207451E+02  0.50400000000E-02 0. -1.
         -1   -1    0    0    0  501 -0.00000000000E+00 -0.00000000000E+00 -0.36184347131E+02  0.36184347482E+02  0.50400000000E-02 0.  1.
         23    2    1    2    0    0  0.00000000000E+00  0.00000000000E+00  0.25581860114E+02  0.97950554933E+02  0.94550936773E+02 0.  0.
    9000005    2    3    3    0    0 -0.20202805374E+02  0.26964198289E+02  0.45890370726E+02  0.58610283739E+02  0.13929030843E+02 0.  0.
         22    1    3    3    0    0  0.20202805374E+02 -0.26964198289E+02 -0.20308510611E+02  0.39340271194E+02  0.00000000000E+00 0.  1.
         22    1    4    4    0    0 -0.15522226509E+02  0.94645624202E+01  0.20211211685E+02  0.27184748213E+02  0.00000000000E+00 0. -1.
         22    1    4    4    0    0 -0.46805788645E+01  0.17499635869E+02  0.25679159041E+02  0.31425535526E+02  0.00000000000E+00 0. -1.
<mgrwt>
<rscale>  0 0.94550937E+02</rscale>
<asrwt>0</asrwt>
<pdfrwt beam="1">  1        1 0.95024935E-02 0.94550937E+02</pdfrwt>
<pdfrwt beam="2">  1       -1 0.55668227E-02 0.94550937E+02</pdfrwt>
<totfact> 0.87493280E+04</totfact>
</mgrwt>
</event>
<event>
 7    1  0.3565607E-009  0.1103995E+03  0.7818608E-02  0.1259832E+00
         -1   -1    0    0    0  501 -0.00000000000E+00  0.00000000000E+00  0.33643700545E+01  0.33643738296E+01  0.50400000000E-02 0.  1.
          1   -1    0    0  501    0  0.00000000000E+00 -0.00000000000E+00 -0.90567049367E+03  0.90567049369E+03  0.50400000000E-02 0. -1.
         23    2    1    2    0    0  0.00000000000E+00  0.00000000000E+00 -0.90230612362E+03  0.90903486752E+03  0.11039950019E+03 0.  0.
    9000005    2    3    3    0    0  0.93507875082E+01 -0.13749074147E+02 -0.88449263509E+03  0.88466696567E+03  0.56519334237E+01 0.  0.
         22    1    3    3    0    0 -0.93507875082E+01  0.13749074147E+02 -0.17813488531E+02  0.24367901850E+02  0.00000000000E+00 0.  1.
         22    1    4    4    0    0  0.46806208737E+01 -0.25449585274E+01 -0.31415778583E+03  0.31420295897E+03  0.00000000000E+00 0.  1.
         22    1    4    4    0    0  0.46701666345E+01 -0.11204115619E+02 -0.57033484926E+03  0.57046400670E+03  0.00000000000E+00 0.  1.
<mgrwt>
<rscale>  0 0.11039950E+03</rscale>
<asrwt>0</asrwt>
<pdfrwt beam="2">  1        1 0.13933373E+00 0.11039950E+03</pdfrwt>
<pdfrwt beam="1">  1       -1 0.51759640E-03 0.11039950E+03</pdfrwt>
<totfact> 0.83457885E+04</totfact>
</mgrwt>
</event>
<event>
 7    1  0.3565607E-009  0.9044193E+02  0.7818608E-02  0.1301785E+00
         -1   -1    0    0    0  501 -0.00000000000E+00  0.00000000000E+00  0.34603089359E+02  0.34603089726E+02  0.50400000000E-02 0.  1.
          1   -1    0    0  501    0  0.00000000000E+00 -0.00000000000E+00 -0.59096904697E+02  0.59096904912E+02  0.50400000000E-02 0. -1.
         23    2    1    2    0    0  0.00000000000E+00  0.00000000000E+00 -0.24493815338E+02  0.93699994637E+02  0.90441926147E+02 0.  0.
    9000005    2    3    3    0    0 -0.59013331973E+01  0.38825720819E+02 -0.35104255199E+02  0.53020223686E+02  0.60475661205E+01 0.  0.
         22    1    3    3    0    0  0.59013331973E+01 -0.38825720819E+02  0.10610439861E+02  0.40679770952E+02  0.00000000000E+00 0.  1.
         22    1    4    4    0    0 -0.97677535051E+00  0.26458642394E+01 -0.82823446787E+00  0.29394999562E+01  0.00000000000E+00 0.  1.
         22    1    4    4    0    0 -0.49245578468E+01  0.36179856580E+02 -0.34276020731E+02  0.50080723730E+02  0.00000000000E+00 0.  1.
<mgrwt>
<rscale>  0 0.90441926E+02</rscale>
<asrwt>0</asrwt>
<pdfrwt beam="2">  1        1 0.90918315E-02 0.90441926E+02</pdfrwt>
<pdfrwt beam="1">  1       -1 0.53235523E-02 0.90441926E+02</pdfrwt>
<totfact> 0.98331884E+04</totfact>
</mgrwt>
</event>
<event>
 7    1  0.3565607E-009  0.9166275E+02  0.7818608E-02  0.1298874E+00
          1   -1    0    0  501    0  0.00000000000E+00  0.00000000000E+00  0.27046308885E+02  0.27046309354E+02  0.50400000000E-02 0. -1.
         -1   -1    0    0    0  501 -0.00000000000E+00 -0.00000000000E+00 -0.77663643563E+02  0.77663643727E+02  0.50400000000E-02 0.  1.
         23    2    1    2    0    0  0.00000000000E+00 -0.35527136788E-14 -0.50617334679E+02  0.10470995308E+03  0.91662749819E+02 0.  0.
    9000005    2    3    3    0    0 -0.33058309182E+02 -0.27220376223E+02 -0.42878856522E+02  0.61193465035E+02  0.84995963816E+01 0.  0.
         22    1    3    3    0    0  0.33058309182E+02  0.27220376223E+02 -0.77384781563E+01  0.43516488046E+02  0.00000000000E+00 0.  1.
         22    1    4    4    0    0 -0.29011354941E+02 -0.20413116390E+02 -0.37501993783E+02  0.51621251186E+02  0.00000000000E+00 0.  1.
         22    1    4    4    0    0 -0.40469542412E+01 -0.68072598332E+01 -0.53768627390E+01  0.95722138496E+01  0.00000000000E+00 0.  1.
<mgrwt>
<rscale>  0 0.91662750E+02</rscale>
<asrwt>0</asrwt>
<pdfrwt beam="1">  1        1 0.41609707E-02 0.91662750E+02</pdfrwt>
<pdfrwt beam="2">  1       -1 0.11948253E-01 0.91662750E+02</pdfrwt>
<totfact> 0.83923736E+04</totfact>
</mgrwt>
</event>
<event>
 7    1  0.3565607E-009  0.9018377E+02  0.7818608E-02  0.1302407E+00
         -1   -1    0    0    0  501 -0.00000000000E+00  0.00000000000E+00  0.45623078413E+01  0.45623106252E+01  0.50400000000E-02 0.  1.
          1   -1    0    0  501    0  0.00000000000E+00 -0.00000000000E+00 -0.44566861962E+03  0.44566861965E+03  0.50400000000E-02 0. -1.
         23    2    1    2    0    0  0.00000000000E+00 -0.88817841970E-15 -0.44110631178E+03  0.45023093027E+03  0.90183769516E+02 0.  0.
    9000005    2    3    3    0    0  0.28240318850E+02 -0.75959467969E+01 -0.39188902689E+03  0.39298099448E+03  0.13559531032E+01 0.  0.
         22    1    3    3    0    0 -0.28240318850E+02  0.75959467969E+01 -0.49217284882E+02  0.57249935788E+02  0.00000000000E+00 0.  1.
         22    1    4    4    0    0  0.18421926568E+02 -0.56052658263E+01 -0.25589444234E+03  0.25661791053E+03  0.00000000000E+00 0. -1.
         22    1    4    4    0    0  0.98183922823E+01 -0.19906809706E+01 -0.13599458455E+03  0.13636308395E+03  0.00000000000E+00 0. -1.
<mgrwt>
<rscale>  0 0.90183770E+02</rscale>
<asrwt>0</asrwt>
<pdfrwt beam="2">  1        1 0.68564369E-01 0.90183770E+02</pdfrwt>
<pdfrwt beam="1">  1       -1 0.70189408E-03 0.90183770E+02</pdfrwt>
<totfact> 0.14120610E+05</totfact>
</mgrwt>
</event>
<event>
 7    1  0.3565607E-009  0.8973244E+02  0.7818608E-02  0.1303501E+00
         -1   -1    0    0    0  501 -0.00000000000E+00  0.00000000000E+00  0.34277524455E+02  0.34277524826E+02  0.50400000000E-02 0.  1.
          1   -1    0    0  501    0  0.00000000000E+00 -0.00000000000E+00 -0.58725873490E+02  0.58725873706E+02  0.50400000000E-02 0. -1.
         23    2    1    2    0    0 -0.35527136788E-14 -0.17763568394E-14 -0.24448349034E+02  0.93003398532E+02  0.89732437658E+02 0.  0.
    9000005    2    3    3    0    0 -0.25321407121E+02 -0.15101957363E+02  0.21363589699E+02  0.38524260274E+02  0.12588601594E+02 0.  0.
         22    1    3    3    0    0  0.25321407121E+02  0.15101957363E+02 -0.45811938734E+02  0.54479138258E+02  0.00000000000E+00 0. -1.
         22    1    4    4    0    0 -0.14016356668E+01 -0.64751877286E+01  0.46926899567E+01  0.81187423714E+01  0.00000000000E+00 0. -1.
         22    1    4    4    0    0 -0.23919771454E+02 -0.86267696345E+01  0.16670899742E+02  0.30405517903E+02  0.00000000000E+00 0. -1.
<mgrwt>
<rscale>  0 0.89732438E+02</rscale>
<asrwt>0</asrwt>
<pdfrwt beam="2">  1        1 0.90347498E-02 0.89732438E+02</pdfrwt>
<pdfrwt beam="1">  1       -1 0.52734653E-02 0.89732438E+02</pdfrwt>
<totfact> 0.10040430E+05</totfact>
</mgrwt>
</event>
<event>
 7    1  0.3565607E-009  0.9135966E+02  0.7818608E-02  0.1299592E+00
          1   -1    0    0  501    0  0.00000000000E+00  0.00000000000E+00  0.16809507517E+02  0.16809508273E+02  0.50400000000E-02 0. -1.
         -1   -1    0    0    0  501 -0.00000000000E+00 -0.00000000000E+00 -0.12413490335E+03  0.12413490345E+03  0.50400000000E-02 0.  1.
         23    2    1    2    0    0  0.00000000000E+00  0.00000000000E+00 -0.10732539583E+03  0.14094441172E+03  0.91359655240E+02 0.  0.
    9000005    2    3    3    0    0 -0.38190384226E+01 -0.20596819595E+02  0.77658948494E+01  0.23962279658E+02  0.86641613393E+01 0.  0.
         22    1    3    3    0    0  0.38190384226E+01  0.20596819595E+02 -0.11509129068E+03  0.11698213206E+03  0.00000000000E+00 0.  1.
         22    1    4    4    0    0 -0.32221746745E+01 -0.74276977364E+01 -0.96017368288E+00  0.81532224793E+01  0.00000000000E+00 0.  1.
         22    1    4    4    0    0 -0.59686374813E+00 -0.13169121858E+02  0.87260685323E+01  0.15809057179E+02  0.00000000000E+00 0.  1.
<mgrwt>
<rscale>  0 0.91359655E+02</rscale>
<asrwt>0</asrwt>
<pdfrwt beam="1">  1        1 0.25860782E-02 0.91359655E+02</pdfrwt>
<pdfrwt beam="2">  1       -1 0.19097677E-01 0.91359655E+02</pdfrwt>
<totfact> 0.77579398E+04</totfact>
</mgrwt>
</event>
<event>
 7    1  0.3565607E-009  0.8900260E+02  0.7818608E-02  0.1305285E+00
         -1   -1    0    0    0  501 -0.00000000000E+00  0.00000000000E+00  0.47189372546E+01  0.47189399460E+01  0.50400000000E-02 0.  1.
          1   -1    0    0  501    0  0.00000000000E+00 -0.00000000000E+00 -0.41966337121E+03  0.41966337124E+03  0.50400000000E-02 0. -1.
         23    2    1    2    0    0  0.00000000000E+00  0.00000000000E+00 -0.41494443396E+03  0.42438231119E+03  0.89002599834E+02 0.  0.
    9000005    2    3    3    0    0  0.38397563900E+01 -0.29512425157E+02 -0.36380199518E+03  0.36521073007E+03  0.11885230104E+02 0.  0.
         22    1    3    3    0    0 -0.38397563900E+01  0.29512425157E+02 -0.51142438780E+02  0.59171581119E+02  0.00000000000E+00 0.  1.
         22    1    4    4    0    0  0.31677754811E+00 -0.14425245706E+02 -0.24160965355E+03  0.24204010567E+03  0.00000000000E+00 0.  1.
         22    1    4    4    0    0  0.35229788419E+01 -0.15087179451E+02 -0.12219234162E+03  0.12317062440E+03  0.00000000000E+00 0.  1.
<mgrwt>
<rscale>  0 0.89002600E+02</rscale>
<asrwt>0</asrwt>
<pdfrwt beam="2">  1        1 0.64563566E-01 0.89002600E+02</pdfrwt>
<pdfrwt beam="1">  1       -1 0.72599089E-03 0.89002600E+02</pdfrwt>
<totfact> 0.14490832E+05</totfact>
</mgrwt>
</event>
<event>
 7    1  0.3565607E-009  0.9374625E+02  0.7818608E-02  0.1294025E+00
          1   -1    0    0  501    0  0.00000000000E+00  0.00000000000E+00  0.81364427758E+01  0.81364443367E+01  0.50400000000E-02 0. -1.
         -1   -1    0    0    0  501 -0.00000000000E+00 -0.00000000000E+00 -0.27003075937E+03  0.27003075942E+03  0.50400000000E-02 0.  1.
         23    2    1    2    0    0  0.00000000000E+00  0.00000000000E+00 -0.26189431660E+03  0.27816720376E+03  0.93746254218E+02 0.  0.
    9000005    2    3    3    0    0  0.44180362819E+01 -0.35462304489E+02 -0.21953013910E+03  0.22274322321E+03  0.11998642865E+02 0.  0.
         22    1    3    3    0    0 -0.44180362819E+01  0.35462304489E+02 -0.42364177503E+02  0.55423980547E+02  0.00000000000E+00 0. -1.
         22    1    4    4    0    0  0.27107921765E+01 -0.21279316815E+01 -0.10144581241E+02  0.10713963600E+02  0.00000000000E+00 0.  1.
         22    1    4    4    0    0  0.17072441053E+01 -0.33334372807E+02 -0.20938555785E+03  0.21202925961E+03  0.00000000000E+00 0.  1.
<mgrwt>
<rscale>  0 0.93746254E+02</rscale>
<asrwt>0</asrwt>
<pdfrwt beam="1">  1        1 0.12517608E-02 0.93746254E+02</pdfrwt>
<pdfrwt beam="2">  1       -1 0.41543187E-01 0.93746254E+02</pdfrwt>
<totfact> 0.58618161E+04</totfact>
</mgrwt>
</event>
<event>
 7    1  0.3565607E-009  0.9029476E+02  0.7818608E-02  0.1302139E+00
         -1   -1    0    0    0  501 -0.00000000000E+00  0.00000000000E+00  0.80712838228E+02  0.80712838385E+02  0.50400000000E-02 0.  1.
          1   -1    0    0  501    0  0.00000000000E+00 -0.00000000000E+00 -0.25253554305E+02  0.25253554807E+02  0.50400000000E-02 0. -1.
         23    2    1    2    0    0  0.00000000000E+00  0.00000000000E+00  0.55459283923E+02  0.10596639319E+03  0.90294763486E+02 0.  0.
    9000005    2    3    3    0    0  0.43452315477E+02 -0.98949051220E+01  0.27671494926E+02  0.53448071770E+02  0.10245578404E+02 0.  0.
         22    1    3    3    0    0 -0.43452315477E+02  0.98949051220E+01  0.27787788997E+02  0.52518321423E+02  0.00000000000E+00 0.  1.
         22    1    4    4    0    0  0.15177571395E+02  0.43011110854E+00  0.58593247828E+01  0.16274991734E+02  0.00000000000E+00 0. -1.
         22    1    4    4    0    0  0.28274744082E+02 -0.10325016231E+02  0.21812170143E+02  0.37173080036E+02  0.00000000000E+00 0. -1.
<mgrwt>
<rscale>  0 0.90294763E+02</rscale>
<asrwt>0</asrwt>
<pdfrwt beam="2">  1        1 0.38851623E-02 0.90294763E+02</pdfrwt>
<pdfrwt beam="1">  1       -1 0.12417360E-01 0.90294763E+02</pdfrwt>
<totfact> 0.86652056E+04</totfact>
</mgrwt>
</event>
<event>
 7    1  0.3565607E-009  0.9105755E+02  0.7818608E-02  0.1300311E+00
         -1   -1    0    0    0  501 -0.00000000000E+00  0.00000000000E+00  0.24747725769E+02  0.24747726282E+02  0.50400000000E-02 0.  1.
          1   -1    0    0  501    0  0.00000000000E+00 -0.00000000000E+00 -0.83759984780E+02  0.83759984932E+02  0.50400000000E-02 0. -1.
         23    2    1    2    0    0  0.00000000000E+00 -0.17763568394E-14 -0.59012259011E+02  0.10850771121E+03  0.91057545977E+02 0.  0.
    9000005    2    3    3    0    0 -0.35472016136E+02  0.82980776397E+01 -0.60321565917E+02  0.72054504141E+02  0.15034567871E+02 0.  0.
         22    1    3    3    0    0  0.35472016136E+02 -0.82980776397E+01  0.13093069064E+01  0.36453207072E+02  0.00000000000E+00 0.  1.
         22    1    4    4    0    0 -0.10720906648E+02  0.16184597497E+01 -0.70435809302E+01  0.12929396105E+02  0.00000000000E+00 0.  1.
         22    1    4    4    0    0 -0.24751109488E+02  0.66796178901E+01 -0.53277984987E+02  0.59125108037E+02  0.00000000000E+00 0.  1.
<mgrwt>
<rscale>  0 0.91057546E+02</rscale>
<asrwt>0</asrwt>
<pdfrwt beam="2">  1        1 0.12886151E-01 0.91057546E+02</pdfrwt>
<pdfrwt beam="1">  1       -1 0.38073425E-02 0.91057546E+02</pdfrwt>
<totfact> 0.10184577E+05</totfact>
</mgrwt>
</event>
<event>
 7    1  0.3565607E-009  0.9377556E+02  0.7818608E-02  0.1293958E+00
         -1   -1    0    0    0  501 -0.00000000000E+00  0.00000000000E+00  0.21400326558E+01  0.21400385906E+01  0.50400000000E-02 0.  1.
          1   -1    0    0  501    0  0.00000000000E+00 -0.00000000000E+00 -0.10273025493E+04  0.10273025493E+04  0.50400000000E-02 0. -1.
         23    2    1    2    0    0 -0.88817841970E-15  0.35527136788E-14 -0.10251625166E+04  0.10294425879E+04  0.93775563213E+02 0.  0.
    9000005    2    3    3    0    0  0.65895317714E+01 -0.26682650432E+02 -0.92760246451E+03  0.92808505471E+03  0.11838532137E+02 0.  0.
         22    1    3    3    0    0 -0.65895317714E+01  0.26682650432E+02 -0.97560052130E+02  0.10135753319E+03  0.00000000000E+00 0.  1.
         22    1    4    4    0    0 -0.19477205148E+01 -0.56796079092E+00 -0.34122205017E+02  0.34182467288E+02  0.00000000000E+00 0. -1.
         22    1    4    4    0    0  0.85372522862E+01 -0.26114689641E+02 -0.89348025949E+03  0.89390258742E+03  0.00000000000E+00 0. -1.
<mgrwt>
<rscale>  0 0.93775563E+02</rscale>
<asrwt>0</asrwt>
<pdfrwt beam="2">  1        1 0.15804615E+00 0.93775563E+02</pdfrwt>
<pdfrwt beam="1">  1       -1 0.32923707E-03 0.93775563E+02</pdfrwt>
<totfact> 0.12531917E+05</totfact>
</mgrwt>
</event>
<event>
 7    1  0.3565607E-009  0.9249663E+02  0.7818608E-02  0.1296916E+00
          1   -1    0    0  501    0  0.00000000000E+00  0.00000000000E+00  0.18511348340E+03  0.18511348347E+03  0.50400000000E-02 0. -1.
         -1   -1    0    0    0  501 -0.00000000000E+00 -0.00000000000E+00 -0.11554568693E+02  0.11554569792E+02  0.50400000000E-02 0.  1.
         23    2    1    2    0    0  0.00000000000E+00  0.00000000000E+00  0.17355891471E+03  0.19666805326E+03  0.92496628583E+02 0.  0.
    9000005    2    3    3    0    0 -0.33112940356E+02  0.26911566696E+02  0.49190755393E+02  0.65183688060E+02  0.29126503359E+01 0.  0.
         22    1    3    3    0    0  0.33112940356E+02 -0.26911566696E+02  0.12436815932E+03  0.13148436520E+03  0.00000000000E+00 0. -1.
         22    1    4    4    0    0 -0.14648763401E+02  0.12289976622E+02  0.24213139651E+02  0.30852972730E+02  0.00000000000E+00 0. -1.
         22    1    4    4    0    0 -0.18464176955E+02  0.14621590074E+02  0.24977615742E+02  0.34330715330E+02  0.00000000000E+00 0. -1.
<mgrwt>
<rscale>  0 0.92496629E+02</rscale>
<asrwt>0</asrwt>
<pdfrwt beam="1">  1        1 0.28478994E-01 0.92496629E+02</pdfrwt>
<pdfrwt beam="2">  1       -1 0.17776263E-02 0.92496629E+02</pdfrwt>
<totfact> 0.11222736E+05</totfact>
</mgrwt>
</event>
<event>
 7    1  0.3565607E-009  0.9150220E+02  0.7818608E-02  0.1299254E+00
         -1   -1    0    0    0  501 -0.00000000000E+00  0.00000000000E+00  0.31318812438E+03  0.31318812442E+03  0.50400000000E-02 0.  1.
          1   -1    0    0  501    0  0.00000000000E+00 -0.00000000000E+00 -0.66834043336E+01  0.66834062340E+01  0.50400000000E-02 0. -1.
         23    2    1    2    0    0 -0.11102230246E-15  0.00000000000E+00  0.30650472005E+03  0.31987153065E+03  0.91502200589E+02 0.  0.
    9000005    2    3    3    0    0 -0.73991030217E+00 -0.25500369749E+02  0.28507179043E+03  0.28655206492E+03  0.13976547836E+02 0.  0.
         22    1    3    3    0    0  0.73991030217E+00  0.25500369749E+02  0.21432929619E+02  0.33319465732E+02  0.00000000000E+00 0. -1.
         22    1    4    4    0    0  0.56818438355E+01 -0.18605090288E+02  0.17508314636E+03  0.17616055425E+03  0.00000000000E+00 0.  1.
         22    1    4    4    0    0 -0.64217541377E+01 -0.68952794613E+01  0.10998864406E+03  0.11039151067E+03  0.00000000000E+00 0.  1.
<mgrwt>
<rscale>  0 0.91502201E+02</rscale>
<asrwt>0</asrwt>
<pdfrwt beam="2">  1        1 0.10282161E-02 0.91502201E+02</pdfrwt>
<pdfrwt beam="1">  1       -1 0.48182793E-01 0.91502201E+02</pdfrwt>
<totfact> 0.58997895E+04</totfact>
</mgrwt>
</event>
<event>
 7    1  0.3565607E-009  0.9142509E+02  0.7818608E-02  0.1299437E+00
         -1   -1    0    0    0  501 -0.00000000000E+00  0.00000000000E+00  0.50500844136E+01  0.50500869285E+01  0.50400000000E-02 0.  1.
          1   -1    0    0  501    0  0.00000000000E+00 -0.00000000000E+00 -0.41378247249E+03  0.41378247252E+03  0.50400000000E-02 0. -1.
         23    2    1    2    0    0  0.17763568394E-14  0.00000000000E+00 -0.40873238808E+03  0.41883255945E+03  0.91425093887E+02 0.  0.
    9000005    2    3    3    0    0  0.12733931968E+02  0.20110165667E+02 -0.38250753049E+03  0.38341625047E+03  0.11377102190E+02 0.  0.
         22    1    3    3    0    0 -0.12733931968E+02 -0.20110165667E+02 -0.26224857588E+02  0.35416308984E+02  0.00000000000E+00 0.  1.
         22    1    4    4    0    0 -0.19286566180E+01  0.18939107248E+01 -0.60742375882E+02  0.60802490426E+02  0.00000000000E+00 0. -1.
         22    1    4    4    0    0  0.14662588586E+02  0.18216254942E+02 -0.32176515461E+03  0.32261376004E+03  0.00000000000E+00 0. -1.
<mgrwt>
<rscale>  0 0.91425094E+02</rscale>
<asrwt>0</asrwt>
<pdfrwt beam="2">  1        1 0.63658816E-01 0.91425094E+02</pdfrwt>
<pdfrwt beam="1">  1       -1 0.77693658E-03 0.91425094E+02</pdfrwt>
<totfact> 0.13465371E+05</totfact>
</mgrwt>
</event>
<event>
 7    1  0.3565607E-009  0.9285960E+02  0.7818608E-02  0.1296071E+00
          1   -1    0    0  501    0  0.00000000000E+00  0.00000000000E+00  0.18880921832E+02  0.18880922505E+02  0.50400000000E-02 0. -1.
         -1   -1    0    0    0  501 -0.00000000000E+00 -0.00000000000E+00 -0.11417483178E+03  0.11417483189E+03  0.50400000000E-02 0.  1.
         23    2    1    2    0    0  0.00000000000E+00  0.00000000000E+00 -0.95293909950E+02  0.13305575440E+03  0.92859595653E+02 0.  0.
    9000005    2    3    3    0    0 -0.17185061731E+02 -0.40760762991E+02 -0.30142689058E+02  0.54306483099E+02  0.91567601601E+01 0.  0.
         22    1    3    3    0    0  0.17185061731E+02  0.40760762991E+02 -0.65151220892E+02  0.78749271299E+02  0.00000000000E+00 0. -1.
         22    1    4    4    0    0 -0.86865556792E+01 -0.30837491038E+02 -0.20015327901E+02  0.37775924265E+02  0.00000000000E+00 0. -1.
         22    1    4    4    0    0 -0.84985060518E+01 -0.99232719535E+01 -0.10127361157E+02  0.16530558834E+02  0.00000000000E+00 0. -1.
<mgrwt>
<rscale>  0 0.92859596E+02</rscale>
<asrwt>0</asrwt>
<pdfrwt beam="1">  1        1 0.29047573E-02 0.92859596E+02</pdfrwt>
<pdfrwt beam="2">  1       -1 0.17565358E-01 0.92859596E+02</pdfrwt>
<totfact> 0.75659085E+04</totfact>
</mgrwt>
</event>
<event>
 7    1  0.3565607E-009  0.9170736E+02  0.7818608E-02  0.1298769E+00
          1   -1    0    0  501    0  0.00000000000E+00  0.00000000000E+00  0.25511335036E+02  0.25511335533E+02  0.50400000000E-02 0. -1.
         -1   -1    0    0    0  501 -0.00000000000E+00 -0.00000000000E+00 -0.82416703520E+02  0.82416703674E+02  0.50400000000E-02 0.  1.
         23    2    1    2    0    0  0.00000000000E+00  0.35527136788E-14 -0.56905368485E+02  0.10792803921E+03  0.91707364398E+02 0.  0.
    9000005    2    3    3    0    0  0.23410540571E+02  0.20352622366E+02  0.11006285928E+02  0.33266968682E+02  0.48239225056E+01 0.  0.
         22    1    3    3    0    0 -0.23410540571E+02 -0.20352622366E+02 -0.67911654413E+02  0.74661070526E+02  0.00000000000E+00 0.  1.
         22    1    4    4    0    0  0.21440953465E+02  0.17694363827E+02  0.11158026134E+02  0.29955075429E+02  0.00000000000E+00 0.  1.
         22    1    4    4    0    0  0.19695871055E+01  0.26582585394E+01 -0.15174020597E+00  0.33118932529E+01  0.00000000000E+00 0.  1.
<mgrwt>
<rscale>  0 0.91707364E+02</rscale>
<asrwt>0</asrwt>
<pdfrwt beam="1">  1        1 0.39248209E-02 0.91707364E+02</pdfrwt>
<pdfrwt beam="2">  1       -1 0.12679493E-01 0.91707364E+02</pdfrwt>
<totfact> 0.82979311E+04</totfact>
</mgrwt>
</event>
<event>
 7    1  0.3565607E-009  0.9379944E+02  0.7818608E-02  0.1293903E+00
          1   -1    0    0  501    0  0.00000000000E+00  0.00000000000E+00  0.10077617579E+04  0.10077617579E+04  0.50400000000E-02 0. -1.
         -1   -1    0    0    0  501 -0.00000000000E+00 -0.00000000000E+00 -0.21826396098E+01  0.21826454288E+01  0.50400000000E-02 0.  1.
         23    2    1    2    0    0  0.00000000000E+00  0.00000000000E+00  0.10055791183E+04  0.10099444034E+04  0.93799438696E+02 0.  0.
    9000005    2    3    3    0    0  0.13172701850E+02  0.77571872417E+01  0.97933896476E+03  0.97957600389E+03  0.15187016886E+02 0.  0.
         22    1    3    3    0    0 -0.13172701850E+02 -0.77571872417E+01  0.26240153565E+02  0.30368399481E+02  0.00000000000E+00 0.  1.
         22    1    4    4    0    0  0.12259161445E+02  0.99348533821E+01  0.95319555708E+03  0.95332615531E+03  0.00000000000E+00 0. -1.
         22    1    4    4    0    0  0.91354040530E+00 -0.21776661404E+01  0.26143407673E+02  0.26249848584E+02  0.00000000000E+00 0. -1.
<mgrwt>
<rscale>  0 0.93799439E+02</rscale>
<asrwt>0</asrwt>
<pdfrwt beam="1">  1        1 0.15503976E+00 0.93799439E+02</pdfrwt>
<pdfrwt beam="2">  1       -1 0.33579227E-03 0.93799439E+02</pdfrwt>
<totfact> 0.12591704E+05</totfact>
</mgrwt>
</event>
<event>
 7    1  0.3565607E-009  0.9011094E+02  0.7818608E-02  0.1302583E+00
          1   -1    0    0  501    0  0.00000000000E+00  0.00000000000E+00  0.64970705817E+01  0.64970725365E+01  0.50400000000E-02 0. -1.
         -1   -1    0    0    0  501 -0.00000000000E+00 -0.00000000000E+00 -0.31244776372E+03  0.31244776376E+03  0.50400000000E-02 0.  1.
         23    2    1    2    0    0  0.44408920985E-15  0.00000000000E+00 -0.30595069314E+03  0.31894483630E+03  0.90110942559E+02 0.  0.
    9000005    2    3    3    0    0  0.39778792640E+01 -0.42112278293E+02 -0.20085952017E+03  0.20566014120E+03  0.12738890484E+02 0.  0.
         22    1    3    3    0    0 -0.39778792640E+01  0.42112278293E+02 -0.10509117297E+03  0.11328469510E+03  0.00000000000E+00 0. -1.
         22    1    4    4    0    0  0.49293439410E+01 -0.69473094190E+01 -0.52536261053E+02  0.53222385002E+02  0.00000000000E+00 0. -1.
         22    1    4    4    0    0 -0.95146467704E+00 -0.35164968874E+02 -0.14832325912E+03  0.15243775620E+03  0.00000000000E+00 0. -1.
<mgrwt>
<rscale>  0 0.90110943E+02</rscale>
<asrwt>0</asrwt>
<pdfrwt beam="1">  1        1 0.99954972E-03 0.90110943E+02</pdfrwt>
<pdfrwt beam="2">  1       -1 0.48068875E-01 0.90110943E+02</pdfrwt>
<totfact> 0.61468678E+04</totfact>
</mgrwt>
</event>
<event>
 7    1  0.3565607E-009  0.9126793E+02  0.7818608E-02  0.1299810E+00
         -1   -1    0    0    0  501 -0.00000000000E+00  0.00000000000E+00  0.49288567602E+02  0.49288567860E+02  0.50400000000E-02 0.  1.
          1   -1    0    0  501    0  0.00000000000E+00 -0.00000000000E+00 -0.42250343101E+02  0.42250343402E+02  0.50400000000E-02 0. -1.
         23    2    1    2    0    0  0.00000000000E+00  0.00000000000E+00  0.70382245007E+01  0.91538911261E+02  0.91267933420E+02 0.  0.
    9000005    2    3    3    0    0 -0.18581031012E+02  0.13567968034E+02  0.42062079207E+02  0.49634080173E+02  0.12844412693E+02 0.  0.
         22    1    3    3    0    0  0.18581031012E+02 -0.13567968034E+02 -0.35023854706E+02  0.41904831088E+02  0.00000000000E+00 0. -1.
         22    1    4    4    0    0 -0.14807427286E+02  0.96327033377E+01  0.19028725271E+02  0.25964230430E+02  0.00000000000E+00 0. -1.
         22    1    4    4    0    0 -0.37736037266E+01  0.39352646961E+01  0.23033353936E+02  0.23669849743E+02  0.00000000000E+00 0. -1.
<mgrwt>
<rscale>  0 0.91267933E+02</rscale>
<asrwt>0</asrwt>
<pdfrwt beam="2">  1        1 0.65000529E-02 0.91267933E+02</pdfrwt>
<pdfrwt beam="1">  1       -1 0.75828566E-02 0.91267933E+02</pdfrwt>
<totfact> 0.91161609E+04</totfact>
</mgrwt>
</event>
<event>
 7    1  0.3565607E-009  0.9446559E+02  0.7818608E-02  0.1292384E+00
          1   -1    0    0  501    0  0.00000000000E+00  0.00000000000E+00  0.80975199269E+01  0.80975214954E+01  0.50400000000E-02 0. -1.
         -1   -1    0    0    0  501 -0.00000000000E+00 -0.00000000000E+00 -0.27550863028E+03  0.27550863032E+03  0.50400000000E-02 0.  1.
         23    2    1    2    0    0  0.00000000000E+00  0.00000000000E+00 -0.26741111035E+03  0.28360615182E+03  0.94465588500E+02 0.  0.
    9000005    2    3    3    0    0  0.30096604964E+02 -0.22060770591E+02 -0.54526830668E+02  0.67476098922E+02  0.13688149385E+02 0.  0.
         22    1    3    3    0    0 -0.30096604964E+02  0.22060770591E+02 -0.21288427968E+03  0.21613005290E+03  0.00000000000E+00 0.  1.
         22    1    4    4    0    0  0.14600567108E+02 -0.12139511945E+02 -0.16193312416E+02  0.24955313605E+02  0.00000000000E+00 0. -1.
         22    1    4    4    0    0  0.15496037856E+02 -0.99212586460E+01 -0.38333518252E+02  0.42520785317E+02  0.00000000000E+00 0. -1.
<mgrwt>
<rscale>  0 0.94465589E+02</rscale>
<asrwt>0</asrwt>
<pdfrwt beam="1">  1        1 0.12457726E-02 0.94465589E+02</pdfrwt>
<pdfrwt beam="2">  1       -1 0.42385936E-01 0.94465589E+02</pdfrwt>
<totfact> 0.57036162E+04</totfact>
</mgrwt>
</event>
<event>
 7    1  0.3565607E-009  0.8985808E+02  0.7818608E-02  0.1303196E+00
         -1   -1    0    0    0  501 -0.00000000000E+00  0.00000000000E+00  0.77109234205E+00  0.77110881305E+00  0.50400000000E-02 0.  1.
          1   -1    0    0  501    0  0.00000000000E+00 -0.00000000000E+00 -0.26178408061E+04  0.26178408061E+04  0.50400000000E-02 0. -1.
         23    2    1    2    0    0  0.22204460493E-15  0.00000000000E+00 -0.26170697137E+04  0.26186119149E+04  0.89858078550E+02 0.  0.
    9000005    2    3    3    0    0  0.35862028335E+00  0.10868455193E+02 -0.25782379570E+04  0.25782862747E+04  0.11441128417E+02 0.  0.
         22    1    3    3    0    0 -0.35862028335E+00 -0.10868455193E+02 -0.38831756764E+02  0.40325640233E+02  0.00000000000E+00 0.  1.
         22    1    4    4    0    0  0.43532161046E+01  0.77271351248E+01 -0.97702387317E+03  0.97706412679E+03  0.00000000000E+00 0. -1.
         22    1    4    4    0    0 -0.39945958213E+01  0.31413200682E+01 -0.16012140838E+04  0.16012221479E+04  0.00000000000E+00 0. -1.
<mgrwt>
<rscale>  0 0.89858079E+02</rscale>
<asrwt>0</asrwt>
<pdfrwt beam="2">  1        1 0.40273763E+00 0.89858079E+02</pdfrwt>
<pdfrwt beam="1">  1       -1 0.11863295E-03 0.89858079E+02</pdfrwt>
<totfact> 0.48614775E+04</totfact>
</mgrwt>
</event>
<event>
 7    1  0.3565607E-009  0.9117974E+02  0.7818608E-02  0.1300020E+00
          1   -1    0    0  501    0  0.00000000000E+00  0.00000000000E+00  0.31871621312E+03  0.31871621316E+03  0.50400000000E-02 0. -1.
         -1   -1    0    0    0  501 -0.00000000000E+00 -0.00000000000E+00 -0.65212749460E+01  0.65212768936E+01  0.50400000000E-02 0.  1.
         23    2    1    2    0    0  0.00000000000E+00  0.00000000000E+00  0.31219493818E+03  0.32523749006E+03  0.91179742897E+02 0.  0.
    9000005    2    3    3    0    0  0.37762425767E+01  0.38787382245E+02  0.24002297311E+03  0.24321606864E+03  0.49302530574E+01 0.  0.
         22    1    3    3    0    0 -0.37762425767E+01 -0.38787382245E+02  0.72171965071E+02  0.82021421419E+02  0.00000000000E+00 0.  1.
         22    1    4    4    0    0  0.30733332060E+01  0.18156324965E+02  0.10030105661E+03  0.10197744589E+03  0.00000000000E+00 0.  1.
         22    1    4    4    0    0  0.70290937071E+00  0.20631057280E+02  0.13972191650E+03  0.14123862275E+03  0.00000000000E+00 0.  1.
<mgrwt>
<rscale>  0 0.91179743E+02</rscale>
<asrwt>0</asrwt>
<pdfrwt beam="1">  1        1 0.49033247E-01 0.91179743E+02</pdfrwt>
<pdfrwt beam="2">  1       -1 0.10032736E-02 0.91179743E+02</pdfrwt>
<totfact> 0.12958311E+05</totfact>
</mgrwt>
</event>
<event>
 7    1  0.3565607E-009  0.9147573E+02  0.7818608E-02  0.1299317E+00
         -1   -1    0    0    0  501 -0.00000000000E+00  0.00000000000E+00  0.24967281307E+03  0.24967281312E+03  0.50400000000E-02 0.  1.
          1   -1    0    0  501    0  0.00000000000E+00 -0.00000000000E+00 -0.83787738674E+01  0.83787753832E+01  0.50400000000E-02 0. -1.
         23    2    1    2    0    0  0.00000000000E+00  0.71054273576E-14  0.24129403920E+03  0.25805158850E+03  0.91475728883E+02 0.  0.
    9000005    2    3    3    0    0  0.41540615876E+01  0.39504036659E+02  0.18077202095E+03  0.18565863420E+03  0.14586972031E+02 0.  0.
         22    1    3    3    0    0 -0.41540615876E+01 -0.39504036659E+02  0.60522018249E+02  0.72392954305E+02  0.00000000000E+00 0. -1.
         22    1    4    4    0    0 -0.96997771302E+00  0.13762398752E+02  0.93902918001E+02  0.94911024045E+02  0.00000000000E+00 0. -1.
         22    1    4    4    0    0  0.51240393006E+01  0.25741637908E+02  0.86869102952E+02  0.90747610153E+02  0.00000000000E+00 0. -1.
<mgrwt>
<rscale>  0 0.91475729E+02</rscale>
<asrwt>0</asrwt>
<pdfrwt beam="2">  1        1 0.12890425E-02 0.91475729E+02</pdfrwt>
<pdfrwt beam="1">  1       -1 0.38411196E-01 0.91475729E+02</pdfrwt>
<totfact> 0.64241890E+04</totfact>
</mgrwt>
</event>
<event>
 7    1  0.3565607E-009  0.9222189E+02  0.7818608E-02  0.1297559E+00
         -1   -1    0    0    0  501 -0.00000000000E+00  0.00000000000E+00  0.31019184180E+02  0.31019184589E+02  0.50400000000E-02 0.  1.
          1   -1    0    0  501    0  0.00000000000E+00 -0.00000000000E+00 -0.68545300168E+02  0.68545300353E+02  0.50400000000E-02 0. -1.
         23    2    1    2    0    0  0.00000000000E+00  0.00000000000E+00 -0.37526115988E+02  0.99564484942E+02  0.92221891548E+02 0.  0.
    9000005    2    3    3    0    0 -0.44183270775E+02 -0.11301277644E+02 -0.23737523219E+02  0.51919909350E+02  0.72337186577E+01 0.  0.
         22    1    3    3    0    0  0.44183270775E+02  0.11301277644E+02 -0.13788592769E+02  0.47644575592E+02  0.00000000000E+00 0.  1.
         22    1    4    4    0    0 -0.14799508845E+02 -0.50935376883E+01 -0.46203136570E+01  0.16319218319E+02  0.00000000000E+00 0.  1.
         22    1    4    4    0    0 -0.29383761930E+02 -0.62077399558E+01 -0.19117209562E+02  0.35600691032E+02  0.00000000000E+00 0.  1.
<mgrwt>
<rscale>  0 0.92221892E+02</rscale>
<asrwt>0</asrwt>
<pdfrwt beam="2">  1        1 0.10545431E-01 0.92221892E+02</pdfrwt>
<pdfrwt beam="1">  1       -1 0.47721822E-02 0.92221892E+02</pdfrwt>
<totfact> 0.95297486E+04</totfact>
</mgrwt>
</event>
<event>
 7    1  0.3565607E-009  0.1032268E+03  0.7818608E-02  0.1273653E+00
         -1   -1    0    0    0  501 -0.00000000000E+00  0.00000000000E+00  0.18300612192E+02  0.18300612886E+02  0.50400000000E-02 0.  1.
          1   -1    0    0  501    0  0.00000000000E+00 -0.00000000000E+00 -0.14556566365E+03  0.14556566374E+03  0.50400000000E-02 0. -1.
         23    2    1    2    0    0  0.00000000000E+00  0.00000000000E+00 -0.12726505146E+03  0.16386627662E+03  0.10322675667E+03 0.  0.
    9000005    2    3    3    0    0 -0.46814402173E+02  0.20005580053E+02 -0.57289015530E+02  0.77330404939E+02  0.10302851232E+02 0.  0.
         22    1    3    3    0    0  0.46814402173E+02 -0.20005580053E+02 -0.69976035926E+02  0.86535871683E+02  0.00000000000E+00 0. -1.
         22    1    4    4    0    0 -0.21855098308E+02  0.91674929344E+01 -0.34394987582E+02  0.41769647108E+02  0.00000000000E+00 0.  1.
         22    1    4    4    0    0 -0.24959303865E+02  0.10838087118E+02 -0.22894027948E+02  0.35560757831E+02  0.00000000000E+00 0.  1.
<mgrwt>
<rscale>  0 0.10322676E+03</rscale>
<asrwt>0</asrwt>
<pdfrwt beam="2">  1        1 0.22394717E-01 0.10322676E+03</pdfrwt>
<pdfrwt beam="1">  1       -1 0.28154790E-02 0.10322676E+03</pdfrwt>
<totfact> 0.79553604E+04</totfact>
</mgrwt>
</event>
<event>
 7    1  0.3565607E-009  0.9044789E+02  0.7818608E-02  0.1301771E+00
          1   -1    0    0  501    0  0.00000000000E+00  0.00000000000E+00  0.63538280368E+01  0.63538300357E+01  0.50400000000E-02 0. -1.
         -1   -1    0    0    0  501 -0.00000000000E+00 -0.00000000000E+00 -0.32188544886E+03  0.32188544890E+03  0.50400000000E-02 0.  1.
         23    2    1    2    0    0  0.00000000000E+00  0.00000000000E+00 -0.31553162082E+03  0.32823927893E+03  0.90447888292E+02 0.  0.
    9000005    2    3    3    0    0 -0.32869066598E+02  0.22482274539E+02 -0.23292543389E+03  0.23653535139E+03  0.10434869280E+02 0.  0.
         22    1    3    3    0    0  0.32869066598E+02 -0.22482274539E+02 -0.82606186929E+02  0.91703927541E+02  0.00000000000E+00 0. -1.
         22    1    4    4    0    0 -0.61720818382E+01 -0.13371923843E+00 -0.36220599164E+02  0.36742948695E+02  0.00000000000E+00 0.  1.
         22    1    4    4    0    0 -0.26696984760E+02  0.22615993777E+02 -0.19670483473E+03  0.19979240270E+03  0.00000000000E+00 0.  1.
<mgrwt>
<rscale>  0 0.90447888E+02</rscale>
<asrwt>0</asrwt>
<pdfrwt beam="1">  1        1 0.97751241E-03 0.90447888E+02</pdfrwt>
<pdfrwt beam="2">  1       -1 0.49520826E-01 0.90447888E+02</pdfrwt>
<totfact> 0.60130331E+04</totfact>
</mgrwt>
</event>
<event>
 7    1  0.3565607E-009  0.9030400E+02  0.7818608E-02  0.1302117E+00
         -1   -1    0    0    0  501 -0.00000000000E+00  0.00000000000E+00  0.42379365137E+02  0.42379365436E+02  0.50400000000E-02 0.  1.
          1   -1    0    0  501    0  0.00000000000E+00 -0.00000000000E+00 -0.48106036077E+02  0.48106036341E+02  0.50400000000E-02 0. -1.
         23    2    1    2    0    0  0.00000000000E+00  0.00000000000E+00 -0.57266709408E+01  0.90485401778E+02  0.90304004201E+02 0.  0.
    9000005    2    3    3    0    0 -0.61668349082E+01 -0.35191372669E+02  0.22843968908E+02  0.44738882516E+02  0.14256862565E+02 0.  0.
         22    1    3    3    0    0  0.61668349082E+01  0.35191372669E+02 -0.28570639849E+02  0.45746519261E+02  0.00000000000E+00 0. -1.
         22    1    4    4    0    0  0.22204977964E+01 -0.22913687130E+02  0.17578643608E+02  0.28965088977E+02  0.00000000000E+00 0.  1.
         22    1    4    4    0    0 -0.83873327046E+01 -0.12277685539E+02  0.52653253003E+01  0.15773793539E+02  0.00000000000E+00 0.  1.
<mgrwt>
<rscale>  0 0.90304004E+02</rscale>
<asrwt>0</asrwt>
<pdfrwt beam="2">  1        1 0.74009287E-02 0.90304004E+02</pdfrwt>
<pdfrwt beam="1">  1       -1 0.65199023E-02 0.90304004E+02</pdfrwt>
<totfact> 0.95763197E+04</totfact>
</mgrwt>
</event>
<event>
 7    1  0.3565607E-009  0.9087392E+02  0.7818608E-02  0.1300749E+00
          1   -1    0    0  501    0  0.00000000000E+00  0.00000000000E+00  0.17065615254E+02  0.17065615998E+02  0.50400000000E-02 0. -1.
         -1   -1    0    0    0  501 -0.00000000000E+00 -0.00000000000E+00 -0.12097527357E+03  0.12097527367E+03  0.50400000000E-02 0.  1.
         23    2    1    2    0    0  0.00000000000E+00  0.00000000000E+00 -0.10390965831E+03  0.13804088967E+03  0.90873924369E+02 0.  0.
    9000005    2    3    3    0    0  0.38438244672E+02 -0.45179988097E+01 -0.87801201296E+02  0.96119613995E+02  0.56584696605E+01 0.  0.
         22    1    3    3    0    0 -0.38438244672E+02  0.45179988097E+01 -0.16108457016E+02  0.41921275674E+02  0.00000000000E+00 0.  1.
         22    1    4    4    0    0  0.15786011074E+02 -0.19914427518E+00 -0.41299027306E+02  0.44213656946E+02  0.00000000000E+00 0. -1.
         22    1    4    4    0    0  0.22652233598E+02 -0.43188545345E+01 -0.46502173989E+02  0.51905957049E+02  0.00000000000E+00 0. -1.
<mgrwt>
<rscale>  0 0.90873924E+02</rscale>
<asrwt>0</asrwt>
<pdfrwt beam="1">  1        1 0.26254794E-02 0.90873924E+02</pdfrwt>
<pdfrwt beam="2">  1       -1 0.18611580E-01 0.90873924E+02</pdfrwt>
<totfact> 0.79077944E+04</totfact>
</mgrwt>
</event>
<event>
 7    1  0.3565607E-009  0.9101991E+02  0.7818608E-02  0.1300400E+00
         -1   -1    0    0    0  501 -0.00000000000E+00  0.00000000000E+00  0.22681236813E+01  0.22681292810E+01  0.50400000000E-02 0.  1.
          1   -1    0    0  501    0  0.00000000000E+00 -0.00000000000E+00 -0.91315719713E+03  0.91315719714E+03  0.50400000000E-02 0. -1.
         23    2    1    2    0    0  0.00000000000E+00  0.35527136788E-14 -0.91088907345E+03  0.91542532642E+03  0.91019910635E+02 0.  0.
    9000005    2    3    3    0    0 -0.25304941395E+02  0.17203519243E+02 -0.79215110173E+03  0.79280800684E+03  0.10240439960E+02 0.  0.
         22    1    3    3    0    0  0.25304941395E+02 -0.17203519243E+02 -0.11873797172E+03  0.12261731958E+03  0.00000000000E+00 0.  1.
         22    1    4    4    0    0 -0.17548126892E+02  0.11395592355E+02 -0.40947297464E+03  0.41000721121E+03  0.00000000000E+00 0. -1.
         22    1    4    4    0    0 -0.77568145029E+01  0.58079268872E+01 -0.38267812709E+03  0.38280079564E+03  0.00000000000E+00 0. -1.
<mgrwt>
<rscale>  0 0.91019911E+02</rscale>
<asrwt>0</asrwt>
<pdfrwt beam="2">  1        1 0.14048543E+00 0.91019911E+02</pdfrwt>
<pdfrwt beam="1">  1       -1 0.34894326E-03 0.91019911E+02</pdfrwt>
<totfact> 0.13944865E+05</totfact>
</mgrwt>
</event>
<event>
 7    1  0.3565607E-009  0.9404937E+02  0.7818608E-02  0.1293332E+00
          1   -1    0    0  501    0  0.00000000000E+00  0.00000000000E+00  0.14712856369E+02  0.14712857232E+02  0.50400000000E-02 0. -1.
         -1   -1    0    0    0  501 -0.00000000000E+00 -0.00000000000E+00 -0.15029854674E+03  0.15029854683E+03  0.50400000000E-02 0.  1.
         23    2    1    2    0    0  0.00000000000E+00  0.00000000000E+00 -0.13558569037E+03  0.16501140406E+03  0.94049370203E+02 0.  0.
    9000005    2    3    3    0    0  0.27378592179E+02  0.12121147228E+02 -0.89543613453E+01  0.34888373772E+02  0.15508337032E+02 0.  0.
         22    1    3    3    0    0 -0.27378592179E+02 -0.12121147228E+02 -0.12663132903E+03  0.13012303029E+03  0.00000000000E+00 0.  1.
         22    1    4    4    0    0  0.48490344120E+00  0.35470340714E+01 -0.53421425275E+01  0.64307906851E+01  0.00000000000E+00 0. -1.
         22    1    4    4    0    0  0.26893688738E+02  0.85741131565E+01 -0.36122188179E+01  0.28457583087E+02  0.00000000000E+00 0. -1.
<mgrwt>
<rscale>  0 0.94049370E+02</rscale>
<asrwt>0</asrwt>
<pdfrwt beam="1">  1        1 0.22635165E-02 0.94049370E+02</pdfrwt>
<pdfrwt beam="2">  1       -1 0.23122852E-01 0.94049370E+02</pdfrwt>
<totfact> 0.68962090E+04</totfact>
</mgrwt>
</event>
<event>
 7    1  0.3565607E-009  0.8938687E+02  0.7818608E-02  0.1304343E+00
          1   -1    0    0  501    0  0.00000000000E+00  0.00000000000E+00  0.51966151555E+03  0.51966151558E+03  0.50400000000E-02 0. -1.
         -1   -1    0    0    0  501 -0.00000000000E+00 -0.00000000000E+00 -0.38438524323E+01  0.38438557365E+01  0.50400000000E-02 0.  1.
         23    2    1    2    0    0  0.00000000000E+00  0.00000000000E+00  0.51581766312E+03  0.52350537131E+03  0.89386868203E+02 0.  0.
    9000005    2    3    3    0    0  0.89077366320E+01 -0.43256419210E+02  0.29146549478E+03  0.29484763360E+03  0.57032289639E+01 0.  0.
         22    1    3    3    0    0 -0.89077366320E+01  0.43256419210E+02  0.22435216834E+03  0.22865773771E+03  0.00000000000E+00 0. -1.
         22    1    4    4    0    0  0.69908470157E+01 -0.21699233860E+02  0.15892278761E+03  0.16054962197E+03  0.00000000000E+00 0. -1.
         22    1    4    4    0    0  0.19168896163E+01 -0.21557185350E+02  0.13254270717E+03  0.13429801164E+03  0.00000000000E+00 0. -1.
<mgrwt>
<rscale>  0 0.89386868E+02</rscale>
<asrwt>0</asrwt>
<pdfrwt beam="1">  1        1 0.79947933E-01 0.89386868E+02</pdfrwt>
<pdfrwt beam="2">  1       -1 0.59136212E-03 0.89386868E+02</pdfrwt>
<totfact> 0.14740563E+05</totfact>
</mgrwt>
</event>
<event>
 7    1  0.3565607E-009  0.9101297E+02  0.7818608E-02  0.1300417E+00
          1   -1    0    0  501    0  0.00000000000E+00  0.00000000000E+00  0.11616639720E+03  0.11616639731E+03  0.50400000000E-02 0. -1.
         -1   -1    0    0    0  501 -0.00000000000E+00 -0.00000000000E+00 -0.17826500338E+02  0.17826501051E+02  0.50400000000E-02 0.  1.
         23    2    1    2    0    0  0.71054273576E-14 -0.35527136788E-14  0.98339896862E+02  0.13399289836E+03  0.91012974329E+02 0.  0.
    9000005    2    3    3    0    0 -0.41575232099E+02  0.16597207406E+02  0.61092361196E+02  0.75757633006E+02  0.17248606842E+01 0.  0.
         22    1    3    3    0    0  0.41575232099E+02 -0.16597207406E+02  0.37247535666E+02  0.58235265355E+02  0.00000000000E+00 0.  1.
         22    1    4    4    0    0 -0.37400733946E+01  0.10819868780E+01  0.48173344153E+01  0.61939934993E+01  0.00000000000E+00 0. -1.
         22    1    4    4    0    0 -0.37835158704E+02  0.15515220528E+02  0.56275026780E+02  0.69563639506E+02  0.00000000000E+00 0. -1.
<mgrwt>
<rscale>  0 0.91012974E+02</rscale>
<asrwt>0</asrwt>
<pdfrwt beam="1">  1        1 0.17871753E-01 0.91012974E+02</pdfrwt>
<pdfrwt beam="2">  1       -1 0.27425386E-02 0.91012974E+02</pdfrwt>
<totfact> 0.10765991E+05</totfact>
</mgrwt>
</event>
<event>
 7    1  0.3565607E-009  0.9227773E+02  0.7818608E-02  0.1297428E+00
          1   -1    0    0  501    0  0.00000000000E+00  0.00000000000E+00  0.27275608043E+02  0.27275608509E+02  0.50400000000E-02 0. -1.
         -1   -1    0    0    0  501 -0.00000000000E+00 -0.00000000000E+00 -0.78047574589E+02  0.78047574752E+02  0.50400000000E-02 0.  1.
         23    2    1    2    0    0  0.00000000000E+00  0.00000000000E+00 -0.50771966546E+02  0.10532318326E+03  0.92277734829E+02 0.  0.
    9000005    2    3    3    0    0 -0.44582931815E+02 -0.43304847539E+01 -0.33603508036E+02  0.57352912518E+02  0.12400399774E+02 0.  0.
         22    1    3    3    0    0  0.44582931815E+02  0.43304847539E+01 -0.17168458510E+02  0.47970270742E+02  0.00000000000E+00 0.  1.
         22    1    4    4    0    0 -0.27795719591E+02 -0.86615867173E+01 -0.20118290901E+02  0.35388850516E+02  0.00000000000E+00 0.  1.
         22    1    4    4    0    0 -0.16787212224E+02  0.43311019634E+01 -0.13485217135E+02  0.21964062002E+02  0.00000000000E+00 0.  1.
<mgrwt>
<rscale>  0 0.92277735E+02</rscale>
<asrwt>0</asrwt>
<pdfrwt beam="1">  1        1 0.41962475E-02 0.92277735E+02</pdfrwt>
<pdfrwt beam="2">  1       -1 0.12007319E-01 0.92277735E+02</pdfrwt>
<totfact> 0.82430538E+04</totfact>
</mgrwt>
</event>
<event>
 7    1  0.3565607E-009  0.8774034E+02  0.7818608E-02  0.1308418E+00
         -1   -1    0    0    0  501 -0.00000000000E+00  0.00000000000E+00  0.78031347512E+02  0.78031347675E+02  0.50400000000E-02 0.  1.
          1   -1    0    0  501    0  0.00000000000E+00 -0.00000000000E+00 -0.24664341337E+02  0.24664341852E+02  0.50400000000E-02 0. -1.
         23    2    1    2    0    0  0.00000000000E+00 -0.11102230246E-15  0.53367006175E+02  0.10269568953E+03  0.87740340205E+02 0.  0.
    9000005    2    3    3    0    0  0.41206604040E+02  0.39139552362E+00  0.39321637793E+02  0.59159385367E+02  0.15984500971E+02 0.  0.
         22    1    3    3    0    0 -0.41206604040E+02 -0.39139552362E+00  0.14045368382E+02  0.43536304160E+02  0.00000000000E+00 0. -1.
         22    1    4    4    0    0  0.39965552237E+02  0.35071565172E+01  0.38711385282E+02  0.55750487557E+02  0.00000000000E+00 0.  1.
         22    1    4    4    0    0  0.12410518027E+01 -0.31157609936E+01  0.61025251132E+00  0.34088978092E+01  0.00000000000E+00 0.  1.
<mgrwt>
<rscale>  0 0.87740340E+02</rscale>
<asrwt>0</asrwt>
<pdfrwt beam="2">  1        1 0.37945141E-02 0.87740340E+02</pdfrwt>
<pdfrwt beam="1">  1       -1 0.12004823E-01 0.87740340E+02</pdfrwt>
<totfact> 0.93772417E+04</totfact>
</mgrwt>
</event>
<event>
 7    1  0.3565607E-009  0.9181015E+02  0.7818608E-02  0.1298526E+00
         -1   -1    0    0    0  501 -0.00000000000E+00  0.00000000000E+00  0.19386208285E+02  0.19386208940E+02  0.50400000000E-02 0.  1.
          1   -1    0    0  501    0  0.00000000000E+00 -0.00000000000E+00 -0.10869973299E+03  0.10869973311E+03  0.50400000000E-02 0. -1.
         23    2    1    2    0    0  0.00000000000E+00  0.00000000000E+00 -0.89313524709E+02  0.12808594205E+03  0.91810145708E+02 0.  0.
    9000005    2    3    3    0    0  0.10878717193E+02  0.62429874208E+01 -0.10574742316E+03  0.10741242280E+03  0.14056659846E+02 0.  0.
         22    1    3    3    0    0 -0.10878717193E+02 -0.62429874208E+01  0.16433898456E+02  0.20673519250E+02  0.00000000000E+00 0.  1.
         22    1    4    4    0    0 -0.15903898446E+01  0.24209003509E+01 -0.52911314015E+02  0.52990539242E+02  0.00000000000E+00 0.  1.
         22    1    4    4    0    0  0.12469107038E+02  0.38220870699E+01 -0.52836109150E+02  0.54421883558E+02  0.00000000000E+00 0.  1.
<mgrwt>
<rscale>  0 0.91810146E+02</rscale>
<asrwt>0</asrwt>
<pdfrwt beam="2">  1        1 0.16723036E-01 0.91810146E+02</pdfrwt>
<pdfrwt beam="1">  1       -1 0.29824937E-02 0.91810146E+02</pdfrwt>
<totfact> 0.10394745E+05</totfact>
</mgrwt>
</event>
<event>
 7    1  0.3565607E-009  0.9133275E+02  0.7818608E-02  0.1299656E+00
         -1   -1    0    0    0  501 -0.00000000000E+00  0.00000000000E+00  0.13344337817E+01  0.13344432994E+01  0.50400000000E-02 0.  1.
          1   -1    0    0  501    0  0.00000000000E+00 -0.00000000000E+00 -0.15627679728E+04  0.15627679728E+04  0.50400000000E-02 0. -1.
         23    2    1    2    0    0  0.00000000000E+00 -0.17763568394E-14 -0.15614335390E+04  0.15641024161E+04  0.91332750435E+02 0.  0.
    9000005    2    3    3    0    0  0.15371630464E+02 -0.15698474475E+02 -0.14636987593E+04  0.14639284859E+04  0.13777690974E+02 0.  0.
         22    1    3    3    0    0 -0.15371630464E+02  0.15698474475E+02 -0.97734779729E+02  0.10017393020E+03  0.00000000000E+00 0.  1.
         22    1    4    4    0    0  0.85994997090E+01 -0.16976138563E+02 -0.10545223433E+04  0.10546940377E+04  0.00000000000E+00 0.  1.
         22    1    4    4    0    0  0.67721307552E+01  0.12776640881E+01 -0.40917641599E+03  0.40923444818E+03  0.00000000000E+00 0.  1.
<mgrwt>
<rscale>  0 0.91332750E+02</rscale>
<asrwt>0</asrwt>
<pdfrwt beam="2">  1        1 0.24042438E+00 0.91332750E+02</pdfrwt>
<pdfrwt beam="1">  1       -1 0.20529949E-03 0.91332750E+02</pdfrwt>
<totfact> 0.10621091E+05</totfact>
</mgrwt>
</event>
<event>
 7    1  0.3565607E-009  0.9271527E+02  0.7818608E-02  0.1296406E+00
          1   -1    0    0  501    0  0.00000000000E+00  0.00000000000E+00  0.18985288490E+03  0.18985288497E+03  0.50400000000E-02 0. -1.
         -1   -1    0    0    0  501 -0.00000000000E+00 -0.00000000000E+00 -0.11319450674E+02  0.11319451796E+02  0.50400000000E-02 0.  1.
         23    2    1    2    0    0  0.00000000000E+00 -0.17763568394E-14  0.17853343423E+03  0.20117233676E+03  0.92715273509E+02 0.  0.
    9000005    2    3    3    0    0  0.34421503138E+02 -0.12999245216E+02  0.28657895909E+02  0.46846391956E+02  0.44146559190E+01 0.  0.
         22    1    3    3    0    0 -0.34421503138E+02  0.12999245216E+02  0.14987553832E+03  0.15432594481E+03  0.00000000000E+00 0. -1.
         22    1    4    4    0    0  0.31485792841E+02 -0.11005075813E+02  0.24530774766E+02  0.41403209478E+02  0.00000000000E+00 0.  1.
         22    1    4    4    0    0  0.29357102977E+01 -0.19941694028E+01  0.41271211439E+01  0.54431824786E+01  0.00000000000E+00 0.  1.
<mgrwt>
<rscale>  0 0.92715274E+02</rscale>
<asrwt>0</asrwt>
<pdfrwt beam="1">  1        1 0.29208133E-01 0.92715274E+02</pdfrwt>
<pdfrwt beam="2">  1       -1 0.17414543E-02 0.92715274E+02</pdfrwt>
<totfact> 0.11206256E+05</totfact>
</mgrwt>
</event>
<event>
 7    1  0.3565607E-009  0.9018939E+02  0.7818608E-02  0.1302394E+00
         -1   -1    0    0    0  501 -0.00000000000E+00  0.00000000000E+00  0.13869964500E+02  0.13869965416E+02  0.50400000000E-02 0.  1.
          1   -1    0    0  501    0  0.00000000000E+00 -0.00000000000E+00 -0.14661404043E+03  0.14661404052E+03  0.50400000000E-02 0. -1.
         23    2    1    2    0    0  0.00000000000E+00  0.00000000000E+00 -0.13274407593E+03  0.16048400593E+03  0.90189392202E+02 0.  0.
    9000005    2    3    3    0    0  0.28215298747E+02 -0.13915931605E+02 -0.12382644658E+03  0.12778415350E+03  0.24586130085E+01 0.  0.
         22    1    3    3    0    0 -0.28215298747E+02  0.13915931605E+02 -0.89176293514E+01  0.32699852432E+02  0.00000000000E+00 0.  1.
         22    1    4    4    0    0  0.76825458154E+01 -0.46437941907E+01 -0.38615781912E+02  0.39645490884E+02  0.00000000000E+00 0. -1.
         22    1    4    4    0    0  0.20532752931E+02 -0.92721374147E+01 -0.85210664666E+02  0.88138662618E+02  0.00000000000E+00 0. -1.
<mgrwt>
<rscale>  0 0.90189392E+02</rscale>
<asrwt>0</asrwt>
<pdfrwt beam="2">  1        1 0.22556005E-01 0.90189392E+02</pdfrwt>
<pdfrwt beam="1">  1       -1 0.21338409E-02 0.90189392E+02</pdfrwt>
<totfact> 0.11499057E+05</totfact>
</mgrwt>
</event>
<event>
 7    1  0.3565607E-009  0.9066892E+02  0.7818608E-02  0.1301240E+00
          1   -1    0    0  501    0  0.00000000000E+00  0.00000000000E+00  0.18276229897E+02  0.18276230592E+02  0.50400000000E-02 0. -1.
         -1   -1    0    0    0  501 -0.00000000000E+00 -0.00000000000E+00 -0.11245278823E+03  0.11245278834E+03  0.50400000000E-02 0.  1.
         23    2    1    2    0    0  0.00000000000E+00  0.00000000000E+00 -0.94176558330E+02  0.13072901893E+03  0.90668915577E+02 0.  0.
    9000005    2    3    3    0    0 -0.20092662020E+02  0.39837121617E+02 -0.52183006629E+02  0.69457739280E+02  0.10516655324E+02 0.  0.
         22    1    3    3    0    0  0.20092662020E+02 -0.39837121617E+02 -0.41993551701E+02  0.61271279652E+02  0.00000000000E+00 0.  1.
         22    1    4    4    0    0 -0.38031612764E+01  0.18766445601E+02 -0.20098157751E+02  0.27759313053E+02  0.00000000000E+00 0. -1.
         22    1    4    4    0    0 -0.16289500743E+02  0.21070676016E+02 -0.32084848879E+02  0.41698426227E+02  0.00000000000E+00 0. -1.
<mgrwt>
<rscale>  0 0.90668916E+02</rscale>
<asrwt>0</asrwt>
<pdfrwt beam="1">  1        1 0.28117278E-02 0.90668916E+02</pdfrwt>
<pdfrwt beam="2">  1       -1 0.17300429E-01 0.90668916E+02</pdfrwt>
<totfact> 0.80717383E+04</totfact>
</mgrwt>
</event>
<event>
 7    1  0.3565607E-009  0.9227722E+02  0.7818608E-02  0.1297429E+00
         -1   -1    0    0    0  501 -0.00000000000E+00  0.00000000000E+00  0.21321540588E+02  0.21321541184E+02  0.50400000000E-02 0.  1.
          1   -1    0    0  501    0  0.00000000000E+00 -0.00000000000E+00 -0.99841345464E+02  0.99841345591E+02  0.50400000000E-02 0. -1.
         23    2    1    2    0    0  0.35527136788E-14  0.00000000000E+00 -0.78519804876E+02  0.12116288677E+03  0.92277220232E+02 0.  0.
    9000005    2    3    3    0    0  0.23576151710E+02 -0.21264483263E+01 -0.90778616987E+02  0.94505145192E+02  0.11406509271E+02 0.  0.
         22    1    3    3    0    0 -0.23576151710E+02  0.21264483263E+01  0.12258812111E+02  0.26657741583E+02  0.00000000000E+00 0.  1.
         22    1    4    4    0    0  0.57032880857E+01  0.22743976291E+01 -0.10683740143E+02  0.12322446308E+02  0.00000000000E+00 0.  1.
         22    1    4    4    0    0  0.17872863624E+02 -0.44008459554E+01 -0.80094876843E+02  0.82182698884E+02  0.00000000000E+00 0.  1.
<mgrwt>
<rscale>  0 0.92277220E+02</rscale>
<asrwt>0</asrwt>
<pdfrwt beam="2">  1        1 0.15360207E-01 0.92277220E+02</pdfrwt>
<pdfrwt beam="1">  1       -1 0.32802371E-02 0.92277220E+02</pdfrwt>
<totfact> 0.10105863E+05</totfact>
</mgrwt>
</event>
<event>
 7    1  0.3565607E-009  0.8218978E+02  0.7818608E-02  0.1322950E+00
         -1   -1    0    0    0  501 -0.00000000000E+00  0.00000000000E+00  0.98065272736E+02  0.98065272865E+02  0.50400000000E-02 0. -1.
          1   -1    0    0  501    0  0.00000000000E+00 -0.00000000000E+00 -0.17221080165E+02  0.17221080902E+02  0.50400000000E-02 0.  1.
         23    2    1    2    0    0  0.17763568394E-14 -0.71054273576E-14  0.80844192571E+02  0.11528635377E+03  0.82189779733E+02 0.  0.
    9000005    2    3    3    0    0  0.15632410079E+02 -0.31214590091E+02  0.68566724945E+02  0.78280150358E+02  0.14410527089E+02 0.  0.
         22    1    3    3    0    0 -0.15632410079E+02  0.31214590091E+02  0.12277467626E+02  0.37006203409E+02  0.00000000000E+00 0.  1.
         22    1    4    4    0    0  0.29667407578E+01 -0.59458919650E+01  0.38972865274E+01  0.77035072701E+01  0.00000000000E+00 0.  1.
         22    1    4    4    0    0  0.12665669322E+02 -0.25268698126E+02  0.64669438417E+02  0.70576643088E+02  0.00000000000E+00 0.  1.
<mgrwt>
<rscale>  0 0.82189780E+02</rscale>
<asrwt>0</asrwt>
<pdfrwt beam="2">  1        1 0.26493970E-02 0.82189780E+02</pdfrwt>
<pdfrwt beam="1">  1       -1 0.15086965E-01 0.82189780E+02</pdfrwt>
<totfact> 0.10659610E+05</totfact>
</mgrwt>
</event>
<event>
 7    1  0.3565607E-009  0.9126464E+02  0.7818608E-02  0.1299818E+00
         -1   -1    0    0    0  501 -0.00000000000E+00  0.00000000000E+00  0.74473269553E+01  0.74473286607E+01  0.50400000000E-02 0.  1.
          1   -1    0    0  501    0  0.00000000000E+00 -0.00000000000E+00 -0.27960479188E+03  0.27960479192E+03  0.50400000000E-02 0. -1.
         23    2    1    2    0    0  0.17763568394E-14  0.00000000000E+00 -0.27215746492E+03  0.28705212058E+03  0.91264638380E+02 0.  0.
    9000005    2    3    3    0    0  0.10653987156E+02  0.42414045210E+02 -0.16363697523E+03  0.17005145667E+03  0.15098992664E+02 0.  0.
         22    1    3    3    0    0 -0.10653987156E+02 -0.42414045210E+02 -0.10852048969E+03  0.11700066391E+03  0.00000000000E+00 0.  1.
         22    1    4    4    0    0  0.62496662489E+01  0.26367298440E+02 -0.72304766750E+02  0.77215750012E+02  0.00000000000E+00 0.  1.
         22    1    4    4    0    0  0.44043209071E+01  0.16046746770E+02 -0.91332208485E+02  0.92835706661E+02  0.00000000000E+00 0.  1.
<mgrwt>
<rscale>  0 0.91264638E+02</rscale>
<asrwt>0</asrwt>
<pdfrwt beam="2">  1        1 0.43016114E-01 0.91264638E+02</pdfrwt>
<pdfrwt beam="1">  1       -1 0.11457430E-02 0.91264638E+02</pdfrwt>
<totfact> 0.12607420E+05</totfact>
</mgrwt>
</event>
<event>
 7    1  0.3565607E-009  0.8919165E+02  0.7818608E-02  0.1304821E+00
          1   -1    0    0  501    0  0.00000000000E+00  0.00000000000E+00  0.30031338239E+03  0.30031338243E+03  0.50400000000E-02 0. -1.
         -1   -1    0    0    0  501 -0.00000000000E+00 -0.00000000000E+00 -0.66223733635E+01  0.66223752814E+01  0.50400000000E-02 0.  1.
         23    2    1    2    0    0  0.17763568394E-14  0.00000000000E+00  0.29369100902E+03  0.30693575771E+03  0.89191650844E+02 0.  0.
    9000005    2    3    3    0    0 -0.15124463105E+02 -0.36357630632E+02  0.84168523729E+02  0.93745001501E+02  0.12375711301E+02 0.  0.
         22    1    3    3    0    0  0.15124463105E+02  0.36357630632E+02  0.20952248530E+03  0.21319075621E+03  0.00000000000E+00 0. -1.
         22    1    4    4    0    0 -0.96440567095E+01 -0.28714579175E+02  0.73645990334E+02  0.79632071298E+02  0.00000000000E+00 0.  1.
         22    1    4    4    0    0 -0.54804063958E+01 -0.76430514575E+01  0.10522533395E+02  0.14112930203E+02  0.00000000000E+00 0.  1.
<mgrwt>
<rscale>  0 0.89191651E+02</rscale>
<asrwt>0</asrwt>
<pdfrwt beam="1">  1        1 0.46202060E-01 0.89191651E+02</pdfrwt>
<pdfrwt beam="2">  1       -1 0.10188268E-02 0.89191651E+02</pdfrwt>
<totfact> 0.13587544E+05</totfact>
</mgrwt>
</event>
<event>
 7    1  0.3565607E-009  0.9055857E+02  0.7818608E-02  0.1301505E+00
         -1   -1    0    0    0  501 -0.00000000000E+00  0.00000000000E+00  0.94920705003E+02  0.94920705137E+02  0.50400000000E-02 0.  1.
          1   -1    0    0  501    0  0.00000000000E+00 -0.00000000000E+00 -0.21599225669E+02  0.21599226257E+02  0.50400000000E-02 0. -1.
         23    2    1    2    0    0  0.00000000000E+00 -0.88817841970E-15  0.73321479334E+02  0.11651993139E+03  0.90558572650E+02 0.  0.
    9000005    2    3    3    0    0 -0.17748011035E+02  0.45342868325E+01 -0.16472606612E+02  0.24876439952E+02  0.34552631295E+01 0.  0.
         22    1    3    3    0    0  0.17748011035E+02 -0.45342868325E+01  0.89794085947E+02  0.91643491443E+02  0.00000000000E+00 0.  1.
         22    1    4    4    0    0 -0.11466590487E+02  0.11994423756E+01 -0.10137475803E+02  0.15352191214E+02  0.00000000000E+00 0. -1.
         22    1    4    4    0    0 -0.62814205483E+01  0.33348444569E+01 -0.63351308090E+01  0.95242487380E+01  0.00000000000E+00 0. -1.
<mgrwt>
<rscale>  0 0.90558573E+02</rscale>
<asrwt>0</asrwt>
<pdfrwt beam="2">  1        1 0.33229578E-02 0.90558573E+02</pdfrwt>
<pdfrwt beam="1">  1       -1 0.14603186E-01 0.90558573E+02</pdfrwt>
<totfact> 0.83602934E+04</totfact>
</mgrwt>
</event>
<event>
 7    1  0.3565607E-009  0.9144056E+02  0.7818608E-02  0.1299400E+00
         -1   -1    0    0    0  501 -0.00000000000E+00  0.00000000000E+00  0.27040765766E+01  0.27040812735E+01  0.50400000000E-02 0.  1.
          1   -1    0    0  501    0  0.00000000000E+00 -0.00000000000E+00 -0.77303371111E+03  0.77303371113E+03  0.50400000000E-02 0. -1.
         23    2    1    2    0    0 -0.66613381478E-15  0.00000000000E+00 -0.77032963454E+03  0.77573779240E+03  0.91440563850E+02 0.  0.
    9000005    2    3    3    0    0  0.15879050206E+01  0.33156222140E+02 -0.65067344280E+03  0.65156267119E+03  0.74919160349E+01 0.  0.
         22    1    3    3    0    0 -0.15879050206E+01 -0.33156222140E+02 -0.11965619173E+03  0.12417512121E+03  0.00000000000E+00 0.  1.
         22    1    4    4    0    0  0.44082039408E+01  0.15605989306E+02 -0.32565375757E+03  0.32605727868E+03  0.00000000000E+00 0. -1.
         22    1    4    4    0    0 -0.28202989202E+01  0.17550232834E+02 -0.32501968524E+03  0.32550539251E+03  0.00000000000E+00 0. -1.
<mgrwt>
<rscale>  0 0.91440564E+02</rscale>
<asrwt>0</asrwt>
<pdfrwt beam="2">  1        1 0.11892809E+00 0.91440564E+02</pdfrwt>
<pdfrwt beam="1">  1       -1 0.41601276E-03 0.91440564E+02</pdfrwt>
<totfact> 0.14059093E+05</totfact>
</mgrwt>
</event>
<event>
 7    1  0.3565607E-009  0.9178578E+02  0.7818608E-02  0.1298584E+00
         -1   -1    0    0    0  501 -0.00000000000E+00  0.00000000000E+00  0.84516018941E+02  0.84516019091E+02  0.50400000000E-02 0.  1.
          1   -1    0    0  501    0  0.00000000000E+00 -0.00000000000E+00 -0.24920213851E+02  0.24920214361E+02  0.50400000000E-02 0. -1.
         23    2    1    2    0    0  0.00000000000E+00 -0.17763568394E-14  0.59595805089E+02  0.10943623345E+03  0.91785778898E+02 0.  0.
    9000005    2    3    3    0    0 -0.36028447580E+01 -0.13811500395E+02  0.81249492206E+02  0.83501311064E+02  0.12932553201E+02 0.  0.
         22    1    3    3    0    0  0.36028447580E+01  0.13811500395E+02 -0.21653687116E+02  0.25934922388E+02  0.00000000000E+00 0. -1.
         22    1    4    4    0    0 -0.49348090318E+01 -0.96117983818E+01  0.75441563664E+02  0.76211341259E+02  0.00000000000E+00 0. -1.
         22    1    4    4    0    0  0.13319642738E+01 -0.41997020135E+01  0.58079285411E+01  0.72899698057E+01  0.00000000000E+00 0. -1.
<mgrwt>
<rscale>  0 0.91785779E+02</rscale>
<asrwt>0</asrwt>
<pdfrwt beam="2">  1        1 0.38338791E-02 0.91785779E+02</pdfrwt>
<pdfrwt beam="1">  1       -1 0.13002465E-01 0.91785779E+02</pdfrwt>
<totfact> 0.82439449E+04</totfact>
</mgrwt>
</event>
<event>
 7    1  0.3565607E-009  0.9115643E+02  0.7818608E-02  0.1300075E+00
          1   -1    0    0  501    0  0.00000000000E+00  0.00000000000E+00  0.17546449829E+02  0.17546450552E+02  0.50400000000E-02 0. -1.
         -1   -1    0    0    0  501 -0.00000000000E+00 -0.00000000000E+00 -0.11839282318E+03  0.11839282329E+03  0.50400000000E-02 0.  1.
         23    2    1    2    0    0  0.00000000000E+00  0.00000000000E+00 -0.10084637335E+03  0.13593927384E+03  0.91156432323E+02 0.  0.
    9000005    2    3    3    0    0 -0.27345265913E+02 -0.30806184104E+02 -0.78145588884E+02  0.88906198643E+02  0.10039648814E+02 0.  0.
         22    1    3    3    0    0  0.27345265913E+02  0.30806184104E+02 -0.22700784466E+02  0.47033075194E+02  0.00000000000E+00 0. -1.
         22    1    4    4    0    0 -0.79731528007E+01 -0.16359662478E+02 -0.31842255482E+02  0.36676136058E+02  0.00000000000E+00 0. -1.
         22    1    4    4    0    0 -0.19372113112E+02 -0.14446521626E+02 -0.46303333402E+02  0.52230062585E+02  0.00000000000E+00 0. -1.
<mgrwt>
<rscale>  0 0.91156432E+02</rscale>
<asrwt>0</asrwt>
<pdfrwt beam="1">  1        1 0.26994540E-02 0.91156432E+02</pdfrwt>
<pdfrwt beam="2">  1       -1 0.18214280E-01 0.91156432E+02</pdfrwt>
<totfact> 0.78792338E+04</totfact>
</mgrwt>
</event>
<event>
 7    1  0.3565607E-009  0.1070162E+03  0.7818608E-02  0.1266197E+00
         -1   -1    0    0    0  501 -0.00000000000E+00  0.00000000000E+00  0.23077888430E+02  0.23077888980E+02  0.50400000000E-02 0.  1.
          1   -1    0    0  501    0  0.00000000000E+00 -0.00000000000E+00 -0.12406309532E+03  0.12406309542E+03  0.50400000000E-02 0. -1.
         23    2    1    2    0    0  0.71054273576E-14 -0.71054273576E-14 -0.10098520689E+03  0.14714098440E+03  0.10701615430E+03 0.  0.
    9000005    2    3    3    0    0 -0.33604890885E+02  0.34992461996E+02 -0.79817043498E+02  0.94208459152E+02  0.12276491972E+02 0.  0.
         22    1    3    3    0    0  0.33604890885E+02 -0.34992461996E+02 -0.21168163390E+02  0.52932525249E+02  0.00000000000E+00 0.  1.
         22    1    4    4    0    0 -0.70576641867E+01  0.17449180035E+01 -0.15096312197E+02  0.16755715579E+02  0.00000000000E+00 0. -1.
         22    1    4    4    0    0 -0.26547226698E+02  0.33247543993E+02 -0.64720731301E+02  0.77452743573E+02  0.00000000000E+00 0. -1.
<mgrwt>
<rscale>  0 0.10701615E+03</rscale>
<asrwt>0</asrwt>
<pdfrwt beam="2">  1        1 0.19086630E-01 0.10701615E+03</pdfrwt>
<pdfrwt beam="1">  1       -1 0.35504445E-02 0.10701615E+03</pdfrwt>
<totfact> 0.69887251E+04</totfact>
</mgrwt>
</event>
<event>
 7    1  0.3565607E-009  0.8820015E+02  0.7818608E-02  0.1307270E+00
          1   -1    0    0  501    0  0.00000000000E+00  0.00000000000E+00  0.17585931335E+03  0.17585931342E+03  0.50400000000E-02 0. -1.
         -1   -1    0    0    0  501 -0.00000000000E+00 -0.00000000000E+00 -0.11058933581E+02  0.11058934730E+02  0.50400000000E-02 0.  1.
         23    2    1    2    0    0 -0.44408920985E-15  0.00000000000E+00  0.16480037977E+03  0.18691824815E+03  0.88200149208E+02 0.  0.
    9000005    2    3    3    0    0 -0.29715387602E+01 -0.38817821933E+02  0.41747030071E+02  0.57853224951E+02  0.94089199824E+01 0.  0.
         22    1    3    3    0    0  0.29715387602E+01  0.38817821933E+02  0.12305334970E+03  0.12906502320E+03  0.00000000000E+00 0. -1.
         22    1    4    4    0    0 -0.45229171795E+01 -0.29200704571E+02  0.26119463078E+02  0.39438106937E+02  0.00000000000E+00 0.  1.
         22    1    4    4    0    0  0.15513784192E+01 -0.96171173613E+01  0.15627566993E+02  0.18415118014E+02  0.00000000000E+00 0.  1.
<mgrwt>
<rscale>  0 0.88200149E+02</rscale>
<asrwt>0</asrwt>
<pdfrwt beam="1">  1        1 0.27055278E-01 0.88200149E+02</pdfrwt>
<pdfrwt beam="2">  1       -1 0.17013745E-02 0.88200149E+02</pdfrwt>
<totfact> 0.12626509E+05</totfact>
</mgrwt>
</event>
<event>
 7    1  0.3565607E-009  0.9018085E+02  0.7818608E-02  0.1302414E+00
          1   -1    0    0  501    0  0.00000000000E+00  0.00000000000E+00  0.23143283353E+03  0.23143283358E+03  0.50400000000E-02 0. -1.
         -1   -1    0    0    0  501 -0.00000000000E+00 -0.00000000000E+00 -0.87850382188E+01  0.87850396645E+01  0.50400000000E-02 0.  1.
         23    2    1    2    0    0  0.00000000000E+00  0.00000000000E+00  0.22264779531E+03  0.24021787325E+03  0.90180850914E+02 0.  0.
    9000005    2    3    3    0    0  0.14928931623E+02  0.18613918928E+02  0.21305509087E+03  0.21450073974E+03  0.69817352295E+01 0.  0.
         22    1    3    3    0    0 -0.14928931623E+02 -0.18613918928E+02  0.95927044379E+01  0.25717133505E+02  0.00000000000E+00 0.  1.
         22    1    4    4    0    0  0.25289966821E+01  0.72207663673E+01  0.50583644353E+02  0.51158971521E+02  0.00000000000E+00 0. -1.
         22    1    4    4    0    0  0.12399934941E+02  0.11393152560E+02  0.16247144652E+03  0.16334176822E+03  0.00000000000E+00 0. -1.
<mgrwt>
<rscale>  0 0.90180851E+02</rscale>
<asrwt>0</asrwt>
<pdfrwt beam="1">  1        1 0.35605053E-01 0.90180851E+02</pdfrwt>
<pdfrwt beam="2">  1       -1 0.13515444E-02 0.90180851E+02</pdfrwt>
<totfact> 0.12545064E+05</totfact>
</mgrwt>
</event>
<event>
 7    1  0.3565607E-009  0.8896330E+02  0.7818608E-02  0.1305382E+00
         -1   -1    0    0    0  501 -0.00000000000E+00  0.00000000000E+00  0.11601545849E+01  0.11601655324E+01  0.50400000000E-02 0.  1.
          1   -1    0    0  501    0  0.00000000000E+00 -0.00000000000E+00 -0.17054690990E+04  0.17054690990E+04  0.50400000000E-02 0. -1.
         23    2    1    2    0    0 -0.35527136788E-14  0.00000000000E+00 -0.17043089444E+04  0.17066292645E+04  0.88963299008E+02 0.  0.
    9000005    2    3    3    0    0  0.22898324582E+02 -0.32422823525E+01 -0.15774508392E+04  0.15776803424E+04  0.13757435236E+02 0.  0.
         22    1    3    3    0    0 -0.22898324582E+02  0.32422823525E+01 -0.12685810522E+03  0.12894892215E+03  0.00000000000E+00 0.  1.
         22    1    4    4    0    0  0.32968847251E+01 -0.55353458592E+00 -0.69373062138E+03  0.69373867622E+03  0.00000000000E+00 0. -1.
         22    1    4    4    0    0  0.19601439856E+02 -0.26887477665E+01 -0.88372021778E+03  0.88394166613E+03  0.00000000000E+00 0. -1.
<mgrwt>
<rscale>  0 0.88963299E+02</rscale>
<asrwt>0</asrwt>
<pdfrwt beam="2">  1        1 0.26237786E+00 0.88963299E+02</pdfrwt>
<pdfrwt beam="1">  1       -1 0.17848753E-03 0.88963299E+02</pdfrwt>
<totfact> 0.10444431E+05</totfact>
</mgrwt>
</event>
<event>
 7    1  0.3565607E-009  0.8998100E+02  0.7818608E-02  0.1302898E+00
         -1   -1    0    0    0  501 -0.00000000000E+00  0.00000000000E+00  0.10794795156E+02  0.10794796332E+02  0.50400000000E-02 0.  1.
          1   -1    0    0  501    0  0.00000000000E+00 -0.00000000000E+00 -0.18751120332E+03  0.18751120339E+03  0.50400000000E-02 0. -1.
         23    2    1    2    0    0  0.00000000000E+00  0.00000000000E+00 -0.17671640816E+03  0.19830599972E+03  0.89981001385E+02 0.  0.
    9000005    2    3    3    0    0  0.30670316633E+02 -0.15571338596E+02 -0.31959468589E+02  0.49518545735E+02  0.15733525706E+02 0.  0.
         22    1    3    3    0    0 -0.30670316633E+02  0.15571338596E+02 -0.14475693957E+03  0.14878745398E+03  0.00000000000E+00 0. -1.
         22    1    4    4    0    0  0.16048263587E+01  0.28700935704E+01 -0.17762617516E+01  0.37373801726E+01  0.00000000000E+00 0.  1.
         22    1    4    4    0    0  0.29065490275E+02 -0.18441432166E+02 -0.30183206837E+02  0.45781165562E+02  0.00000000000E+00 0.  1.
<mgrwt>
<rscale>  0 0.89981001E+02</rscale>
<asrwt>0</asrwt>
<pdfrwt beam="2">  1        1 0.28847875E-01 0.89981001E+02</pdfrwt>
<pdfrwt beam="1">  1       -1 0.16607379E-02 0.89981001E+02</pdfrwt>
<totfact> 0.12115387E+05</totfact>
</mgrwt>
</event>
<event>
 7    1  0.3565607E-009  0.9126310E+02  0.7818608E-02  0.1299821E+00
         -1   -1    0    0    0  501 -0.00000000000E+00  0.00000000000E+00  0.17196546761E+02  0.17196547499E+02  0.50400000000E-02 0.  1.
          1   -1    0    0  501    0  0.00000000000E+00 -0.00000000000E+00 -0.12108466594E+03  0.12108466604E+03  0.50400000000E-02 0. -1.
         23    2    1    2    0    0  0.17763568394E-14  0.00000000000E+00 -0.10388811917E+03  0.13828121354E+03  0.91263096114E+02 0.  0.
    9000005    2    3    3    0    0  0.95719599503E+01  0.42927161003E+02 -0.45240247251E+02  0.64974075755E+02  0.15510866506E+02 0.  0.
         22    1    3    3    0    0 -0.95719599503E+01 -0.42927161003E+02 -0.58647871923E+02  0.73307137785E+02  0.00000000000E+00 0. -1.
         22    1    4    4    0    0 -0.13265765964E+01  0.14084680785E+02 -0.68009768377E+01  0.15696857145E+02  0.00000000000E+00 0. -1.
         22    1    4    4    0    0  0.10898536547E+02  0.28842480218E+02 -0.38439270414E+02  0.49277218609E+02  0.00000000000E+00 0. -1.
<mgrwt>
<rscale>  0 0.91263096E+02</rscale>
<asrwt>0</asrwt>
<pdfrwt beam="2">  1        1 0.18628410E-01 0.91263096E+02</pdfrwt>
<pdfrwt beam="1">  1       -1 0.26456227E-02 0.91263096E+02</pdfrwt>
<totfact> 0.10763094E+05</totfact>
</mgrwt>
</event>
<event>
 7    1  0.3565607E-009  0.9058202E+02  0.7818608E-02  0.1301448E+00
          1   -1    0    0  501    0  0.00000000000E+00  0.00000000000E+00  0.13159693711E+03  0.13159693721E+03  0.50400000000E-02 0. -1.
         -1   -1    0    0    0  501 -0.00000000000E+00 -0.00000000000E+00 -0.15587563593E+02  0.15587564408E+02  0.50400000000E-02 0.  1.
         23    2    1    2    0    0  0.00000000000E+00  0.00000000000E+00  0.11600937352E+03  0.14718450162E+03  0.90582022344E+02 0.  0.
    9000005    2    3    3    0    0 -0.36312351280E+02  0.10846523846E+02  0.19553433400E+02  0.43550615657E+02  0.88365961386E+01 0.  0.
         22    1    3    3    0    0  0.36312351280E+02 -0.10846523846E+02  0.96455940118E+02  0.10363388596E+03  0.00000000000E+00 0. -1.
         22    1    4    4    0    0 -0.13144627548E+02  0.60701074947E+01  0.32998254093E+01  0.14849790777E+02  0.00000000000E+00 0.  1.
         22    1    4    4    0    0 -0.23167723732E+02  0.47764163511E+01  0.16253607991E+02  0.28700824880E+02  0.00000000000E+00 0.  1.
<mgrwt>
<rscale>  0 0.90582022E+02</rscale>
<asrwt>0</asrwt>
<pdfrwt beam="1">  1        1 0.20245682E-01 0.90582022E+02</pdfrwt>
<pdfrwt beam="2">  1       -1 0.23980869E-02 0.90582022E+02</pdfrwt>
<totfact> 0.11146003E+05</totfact>
</mgrwt>
</event>
<event>
 7    1  0.3565607E-009  0.8428884E+02  0.7818608E-02  0.1317303E+00
         -1   -1    0    0    0  501 -0.00000000000E+00  0.00000000000E+00  0.27626065048E+01  0.27626111022E+01  0.50400000000E-02 0.  1.
          1   -1    0    0  501    0  0.00000000000E+00 -0.00000000000E+00 -0.64292562403E+03  0.64292562405E+03  0.50400000000E-02 0. -1.
         23    2    1    2    0    0  0.00000000000E+00  0.00000000000E+00 -0.64016301752E+03  0.64568823515E+03  0.84288836785E+02 0.  0.
    9000005    2    3    3    0    0 -0.17504814878E+02  0.15679854424E+02 -0.58604388220E+03  0.58668690307E+03  0.14206125275E+02 0.  0.
         22    1    3    3    0    0  0.17504814878E+02 -0.15679854424E+02 -0.54119135328E+02  0.59001332081E+02  0.00000000000E+00 0.  1.
         22    1    4    4    0    0 -0.40317113486E+01  0.25363165592E+01 -0.29323449600E+03  0.29327317853E+03  0.00000000000E+00 0. -1.
         22    1    4    4    0    0 -0.13473103530E+02  0.13143537865E+02 -0.29280938619E+03  0.29341372454E+03  0.00000000000E+00 0. -1.
<mgrwt>
<rscale>  0 0.84288837E+02</rscale>
<asrwt>0</asrwt>
<pdfrwt beam="2">  1        1 0.98911516E-01 0.84288837E+02</pdfrwt>
<pdfrwt beam="1">  1       -1 0.42501725E-03 0.84288837E+02</pdfrwt>
<totfact> 0.17470428E+05</totfact>
</mgrwt>
</event>
<event>
 7    1  0.3565607E-009  0.8164160E+02  0.7818608E-02  0.1324456E+00
         -1   -1    0    0    0  501 -0.00000000000E+00  0.00000000000E+00  0.57246898170E+02  0.57246898391E+02  0.50400000000E-02 0.  1.
          1   -1    0    0  501    0  0.00000000000E+00 -0.00000000000E+00 -0.29107915223E+02  0.29107915659E+02  0.50400000000E-02 0. -1.
         23    2    1    2    0    0  0.00000000000E+00  0.00000000000E+00  0.28138982946E+02  0.86354814051E+02  0.81641604274E+02 0.  0.
    9000005    2    3    3    0    0  0.24575707576E+02 -0.27772608951E+01  0.48287241682E+02  0.54454486294E+02  0.46855935962E+01 0.  0.
         22    1    3    3    0    0 -0.24575707576E+02  0.27772608951E+01 -0.20148258735E+02  0.31900327757E+02  0.00000000000E+00 0. -1.
         22    1    4    4    0    0  0.24020311656E+02 -0.20784907953E+01  0.47480973387E+02  0.53251650959E+02  0.00000000000E+00 0. -1.
         22    1    4    4    0    0  0.55539591975E+00 -0.69877009979E+00  0.80626829436E+00  0.12028353348E+01  0.00000000000E+00 0. -1.
<mgrwt>
<rscale>  0 0.81641604E+02</rscale>
<asrwt>0</asrwt>
<pdfrwt beam="2">  1        1 0.44781409E-02 0.81641604E+02</pdfrwt>
<pdfrwt beam="1">  1       -1 0.88072150E-02 0.81641604E+02</pdfrwt>
<totfact> 0.11810531E+05</totfact>
</mgrwt>
</event>
<event>
 7    1  0.3565607E-009  0.9095876E+02  0.7818608E-02  0.1300546E+00
         -1   -1    0    0    0  501 -0.00000000000E+00  0.00000000000E+00  0.64792724932E+02  0.64792725128E+02  0.50400000000E-02 0.  1.
          1   -1    0    0  501    0  0.00000000000E+00 -0.00000000000E+00 -0.31922932511E+02  0.31922932909E+02  0.50400000000E-02 0. -1.
         23    2    1    2    0    0  0.00000000000E+00  0.00000000000E+00  0.32869792421E+02  0.96715658037E+02  0.90958755794E+02 0.  0.
    9000005    2    3    3    0    0 -0.37473109438E+01  0.22976932976E+02  0.57870281001E+02  0.62554185329E+02  0.46983923473E+01 0.  0.
         22    1    3    3    0    0  0.37473109438E+01 -0.22976932976E+02 -0.25000488581E+02  0.34161472708E+02  0.00000000000E+00 0. -1.
         22    1    4    4    0    0 -0.21193168889E+01  0.18406833585E+02  0.40842515752E+02  0.44848791730E+02  0.00000000000E+00 0.  1.
         22    1    4    4    0    0 -0.16279940549E+01  0.45700993910E+01  0.17027765250E+02  0.17705393599E+02  0.00000000000E+00 0.  1.
<mgrwt>
<rscale>  0 0.90958756E+02</rscale>
<asrwt>0</asrwt>
<pdfrwt beam="2">  1        1 0.49112204E-02 0.90958756E+02</pdfrwt>
<pdfrwt beam="1">  1       -1 0.99681116E-02 0.90958756E+02</pdfrwt>
<totfact> 0.88151952E+04</totfact>
</mgrwt>
</event>
<event>
 7    1  0.3565607E-009  0.9036355E+02  0.7818608E-02  0.1301974E+00
          1   -1    0    0  501    0  0.00000000000E+00  0.00000000000E+00  0.11875106614E+03  0.11875106625E+03  0.50400000000E-02 0. -1.
         -1   -1    0    0    0  501 -0.00000000000E+00 -0.00000000000E+00 -0.17190520275E+02  0.17190521014E+02  0.50400000000E-02 0.  1.
         23    2    1    2    0    0  0.00000000000E+00  0.00000000000E+00  0.10156054587E+03  0.13594158726E+03  0.90363547244E+02 0.  0.
    9000005    2    3    3    0    0 -0.52139364610E+01 -0.10719788005E+02  0.11615738683E+03  0.11709571890E+03  0.87618422878E+01 0.  0.
         22    1    3    3    0    0  0.52139364610E+01  0.10719788005E+02 -0.14596840964E+02  0.18845868365E+02  0.00000000000E+00 0.  1.
         22    1    4    4    0    0 -0.16441155602E+01 -0.54668122313E+01  0.89902505238E+02  0.90083570089E+02  0.00000000000E+00 0.  1.
         22    1    4    4    0    0 -0.35698209008E+01 -0.52529757740E+01  0.26254881593E+02  0.27012148808E+02  0.00000000000E+00 0.  1.
<mgrwt>
<rscale>  0 0.90363547E+02</rscale>
<asrwt>0</asrwt>
<pdfrwt beam="1">  1        1 0.18269394E-01 0.90363547E+02</pdfrwt>
<pdfrwt beam="2">  1       -1 0.26446955E-02 0.90363547E+02</pdfrwt>
<totfact> 0.11018634E+05</totfact>
</mgrwt>
</event>
<event>
 7    1  0.3565607E-009  0.9020517E+02  0.7818608E-02  0.1302356E+00
          1   -1    0    0  501    0  0.00000000000E+00  0.00000000000E+00  0.48489452881E+03  0.48489452883E+03  0.50400000000E-02 0. -1.
         -1   -1    0    0    0  501 -0.00000000000E+00 -0.00000000000E+00 -0.41952269965E+01  0.41952300240E+01  0.50400000000E-02 0.  1.
         23    2    1    2    0    0  0.00000000000E+00  0.00000000000E+00  0.48069930181E+03  0.48908975886E+03  0.90205174230E+02 0.  0.
    9000005    2    3    3    0    0  0.19077423912E+02 -0.38343576718E+02  0.30089621629E+03  0.30425651633E+03  0.14117959340E+02 0.  0.
         22    1    3    3    0    0 -0.19077423912E+02  0.38343576718E+02  0.17980308552E+03  0.18483324252E+03  0.00000000000E+00 0.  1.
         22    1    4    4    0    0  0.10533355985E+01 -0.17373610117E+02  0.12231238120E+03  0.12354460911E+03  0.00000000000E+00 0. -1.
         22    1    4    4    0    0  0.18024088314E+02 -0.20969966601E+02  0.17858383509E+03  0.18071190723E+03  0.00000000000E+00 0. -1.
<mgrwt>
<rscale>  0 0.90205174E+02</rscale>
<asrwt>0</asrwt>
<pdfrwt beam="1">  1        1 0.74599206E-01 0.90205174E+02</pdfrwt>
<pdfrwt beam="2">  1       -1 0.64541936E-03 0.90205174E+02</pdfrwt>
<totfact> 0.14273828E+05</totfact>
</mgrwt>
</event>
<event>
 7    1  0.3565607E-009  0.9066186E+02  0.7818608E-02  0.1301257E+00
          1   -1    0    0  501    0  0.00000000000E+00  0.00000000000E+00  0.16965495417E+02  0.16965496165E+02  0.50400000000E-02 0. -1.
         -1   -1    0    0    0  501 -0.00000000000E+00 -0.00000000000E+00 -0.12112190940E+03  0.12112190951E+03  0.50400000000E-02 0.  1.
         23    2    1    2    0    0  0.00000000000E+00  0.55511151231E-16 -0.10415641398E+03  0.13808740567E+03  0.90661860949E+02 0.  0.
    9000005    2    3    3    0    0  0.27012711489E+02 -0.13598147378E+00  0.32872104674E+01  0.27300053016E+02  0.21867942436E+01 0.  0.
         22    1    3    3    0    0 -0.27012711489E+02  0.13598147378E+00 -0.10744362445E+03  0.11078735265E+03  0.00000000000E+00 0.  1.
         22    1    4    4    0    0  0.18271205611E+02 -0.97958441545E+00  0.17069767052E+01  0.18376896081E+02  0.00000000000E+00 0. -1.
         22    1    4    4    0    0  0.87415058784E+01  0.84360294167E+00  0.15802337621E+01  0.89231569351E+01  0.00000000000E+00 0. -1.
<mgrwt>
<rscale>  0 0.90661861E+02</rscale>
<asrwt>0</asrwt>
<pdfrwt beam="1">  1        1 0.26100764E-02 0.90661861E+02</pdfrwt>
<pdfrwt beam="2">  1       -1 0.18634139E-01 0.90661861E+02</pdfrwt>
<totfact> 0.79536723E+04</totfact>
</mgrwt>
</event>
<event>
 7    1  0.3565607E-009  0.8867997E+02  0.7818608E-02  0.1306080E+00
          1   -1    0    0  501    0  0.00000000000E+00  0.00000000000E+00  0.56494657700E+02  0.56494657925E+02  0.50400000000E-02 0. -1.
         -1   -1    0    0    0  501 -0.00000000000E+00 -0.00000000000E+00 -0.34800357310E+02  0.34800357675E+02  0.50400000000E-02 0.  1.
         23    2    1    2    0    0 -0.35527136788E-14  0.00000000000E+00  0.21694300390E+02  0.91295015600E+02  0.88679970704E+02 0.  0.
    9000005    2    3    3    0    0  0.18540439659E+02 -0.23435889619E+02 -0.22383511822E+02  0.38042387924E+02  0.72947140060E+01 0.  0.
         22    1    3    3    0    0 -0.18540439659E+02  0.23435889619E+02  0.44077812213E+02  0.53252627676E+02  0.00000000000E+00 0. -1.
         22    1    4    4    0    0 -0.49340910765E+00 -0.17908254179E+01 -0.20625656289E+01  0.27757314709E+01  0.00000000000E+00 0. -1.
         22    1    4    4    0    0  0.19033848767E+02 -0.21645064201E+02 -0.20320946194E+02  0.35266656453E+02  0.00000000000E+00 0. -1.
<mgrwt>
<rscale>  0 0.88679971E+02</rscale>
<asrwt>0</asrwt>
<pdfrwt beam="1">  1        1 0.86914857E-02 0.88679971E+02</pdfrwt>
<pdfrwt beam="2">  1       -1 0.53539013E-02 0.88679971E+02</pdfrwt>
<totfact> 0.10314108E+05</totfact>
</mgrwt>
</event>
<event>
 7    1  0.3615337E-009  0.8823720E+02  0.7818608E-02  0.1307178E+00
          1   -1    0    0  501    0  0.00000000000E+00  0.00000000000E+00  0.50983083673E+03  0.50983083675E+03  0.50400000000E-02 0. -1.
         -1   -1    0    0    0  501 -0.00000000000E+00 -0.00000000000E+00 -0.38178347587E+01  0.38178380854E+01  0.50400000000E-02 0.  1.
         23    2    1    2    0    0  0.17763568394E-14 -0.17763568394E-14  0.50601300197E+03  0.51364867484E+03  0.88237197379E+02 0.  0.
    9000005    2    3    3    0    0  0.13807475316E+02 -0.14773899307E+02  0.48082948982E+03  0.48135124833E+03  0.96494302984E+01 0.  0.
         22    1    3    3    0    0 -0.13807475316E+02  0.14773899307E+02  0.25183512144E+02  0.32297426511E+02  0.00000000000E+00 0.  1.
         22    1    4    4    0    0  0.76634485988E+00 -0.51480557510E+00  0.12083196202E+03  0.12083548881E+03  0.00000000000E+00 0.  1.
         22    1    4    4    0    0  0.13041130456E+02 -0.14259093732E+02  0.35999752780E+03  0.36051575952E+03  0.00000000000E+00 0.  1.
<mgrwt>
<rscale>  0 0.88237197E+02</rscale>
<asrwt>0</asrwt>
<pdfrwt beam="1">  1        1 0.78435504E-01 0.88237197E+02</pdfrwt>
<pdfrwt beam="2">  1       -1 0.58735952E-03 0.88237197E+02</pdfrwt>
<totfact> 0.15221449E+05</totfact>
</mgrwt>
</event>
<event>
 7    1  0.3565607E-009  0.9235042E+02  0.7818608E-02  0.1297258E+00
         -1   -1    0    0    0  501 -0.00000000000E+00  0.00000000000E+00  0.12760999360E+03  0.12760999370E+03  0.50400000000E-02 0.  1.
          1   -1    0    0  501    0  0.00000000000E+00 -0.00000000000E+00 -0.16708330092E+02  0.16708330852E+02  0.50400000000E-02 0. -1.
         23    2    1    2    0    0  0.00000000000E+00  0.00000000000E+00  0.11090166351E+03  0.14431832455E+03  0.92350418693E+02 0.  0.
    9000005    2    3    3    0    0  0.64974776657E+01  0.27439114593E+02  0.11166414831E+03  0.11611010574E+03  0.14749657972E+02 0.  0.
         22    1    3    3    0    0 -0.64974776657E+01 -0.27439114593E+02 -0.76248480384E+00  0.28208218815E+02  0.00000000000E+00 0. -1.
         22    1    4    4    0    0 -0.75165100607E-02  0.24087362808E+02  0.76902467318E+02  0.80586540956E+02  0.00000000000E+00 0.  1.
         22    1    4    4    0    0  0.65049941757E+01  0.33517517849E+01  0.34761680995E+02  0.35523564783E+02  0.00000000000E+00 0.  1.
<mgrwt>
<rscale>  0 0.92350419E+02</rscale>
<asrwt>0</asrwt>
<pdfrwt beam="2">  1        1 0.25705123E-02 0.92350419E+02</pdfrwt>
<pdfrwt beam="1">  1       -1 0.19632308E-01 0.92350419E+02</pdfrwt>
<totfact> 0.75003570E+04</totfact>
</mgrwt>
</event>
<event>
 7    1  0.3565607E-009  0.9044802E+02  0.7818608E-02  0.1301770E+00
         -1   -1    0    0    0  501 -0.00000000000E+00  0.00000000000E+00  0.23244949071E+03  0.23244949077E+03  0.50400000000E-02 0.  1.
          1   -1    0    0  501    0  0.00000000000E+00 -0.00000000000E+00 -0.87985176055E+01  0.87985190490E+01  0.50400000000E-02 0. -1.
         23    2    1    2    0    0  0.00000000000E+00  0.00000000000E+00  0.22365097311E+03  0.24124800982E+03  0.90448020811E+02 0.  0.
    9000005    2    3    3    0    0 -0.33816268115E+02  0.49802087078E+01  0.37731851764E+02  0.52212928022E+02  0.11582519031E+02 0.  0.
         22    1    3    3    0    0  0.33816268115E+02 -0.49802087078E+01  0.18591912135E+03  0.18903508180E+03  0.00000000000E+00 0. -1.
         22    1    4    4    0    0 -0.30129744554E+02  0.48769933498E+01  0.26601049068E+02  0.40487064386E+02  0.00000000000E+00 0. -1.
         22    1    4    4    0    0 -0.36865235607E+01  0.10321535795E+00  0.11130802695E+02  0.11725863636E+02  0.00000000000E+00 0. -1.
<mgrwt>
<rscale>  0 0.90448021E+02</rscale>
<asrwt>0</asrwt>
<pdfrwt beam="2">  1        1 0.13536182E-02 0.90448021E+02</pdfrwt>
<pdfrwt beam="1">  1       -1 0.35761461E-01 0.90448021E+02</pdfrwt>
<totfact> 0.67739420E+04</totfact>
</mgrwt>
</event>
<event>
 7    1  0.3565607E-009  0.9215037E+02  0.7818608E-02  0.1297726E+00
         -1   -1    0    0    0  501 -0.00000000000E+00  0.00000000000E+00  0.15096530395E+02  0.15096531237E+02  0.50400000000E-02 0.  1.
          1   -1    0    0  501    0  0.00000000000E+00 -0.00000000000E+00 -0.14062320169E+03  0.14062320178E+03  0.50400000000E-02 0. -1.
         23    2    1    2    0    0  0.00000000000E+00 -0.35527136788E-14 -0.12552667130E+03  0.15571973302E+03  0.92150366492E+02 0.  0.
    9000005    2    3    3    0    0 -0.42298570947E+01 -0.26439823849E+02 -0.20096339141E+01  0.29333758718E+02  0.11809944785E+02 0.  0.
         22    1    3    3    0    0  0.42298570947E+01  0.26439823849E+02 -0.12351703738E+03  0.12638597430E+03  0.00000000000E+00 0. -1.
         22    1    4    4    0    0  0.84810417481E+00 -0.22500641644E+02  0.25975253766E+00  0.22518117738E+02  0.00000000000E+00 0. -1.
         22    1    4    4    0    0 -0.50779612695E+01 -0.39391822055E+01 -0.22693864518E+01  0.68156409802E+01  0.00000000000E+00 0. -1.
<mgrwt>
<rscale>  0 0.92150366E+02</rscale>
<asrwt>0</asrwt>
<pdfrwt beam="2">  1        1 0.21634338E-01 0.92150366E+02</pdfrwt>
<pdfrwt beam="1">  1       -1 0.23225433E-02 0.92150366E+02</pdfrwt>
<totfact> 0.10767981E+05</totfact>
</mgrwt>
</event>
<event>
 6    1  0.3876492E-009  0.1423515E+03  0.7818608E-02  0.1210199E+00
         -1   -1    0    0    0  501 -0.00000000000E+00  0.00000000000E+00  0.65848175018E+01  0.65848194306E+01  0.50400000000E-02 0.  1.
          1   -1    0    0  501    0  0.00000000000E+00 -0.00000000000E+00 -0.76934316253E+03  0.76934316255E+03  0.50400000000E-02 0. -1.
    9000005    2    1    2    0    0 -0.39845397490E+02 -0.55754165508E+01 -0.70083426782E+03  0.70208130088E+03  0.11434208605E+02 0.  0.
         22    1    1    2    0    0  0.39845397490E+02  0.55754165508E+01 -0.61924077215E+02  0.73846681102E+02  0.00000000000E+00 0.  1.
         22    1    3    3    0    0 -0.19079198055E+02 -0.54795773260E+01 -0.25916364428E+03  0.25992275022E+03  0.00000000000E+00 0. -1.
         22    1    3    3    0    0 -0.20766199435E+02 -0.95839224806E-01 -0.44167062354E+03  0.44215855066E+03  0.00000000000E+00 0. -1.
<mgrwt>
<rscale>  0 0.14235147E+03</rscale>
<asrwt>0</asrwt>
<pdfrwt beam="2">  1        1 0.11836042E+00 0.14235147E+03</pdfrwt>
<pdfrwt beam="1">  1       -1 0.10130496E-02 0.14235147E+03</pdfrwt>
<totfact> 0.42555146E+04</totfact>
</mgrwt>
</event>
<event>
 7    1  0.3565607E-009  0.9137289E+02  0.7818608E-02  0.1299561E+00
         -1   -1    0    0    0  501 -0.00000000000E+00  0.00000000000E+00  0.25958459095E+02  0.25958459584E+02  0.50400000000E-02 0.  1.
          1   -1    0    0  501    0  0.00000000000E+00 -0.00000000000E+00 -0.80407361109E+02  0.80407361267E+02  0.50400000000E-02 0. -1.
         23    2    1    2    0    0  0.00000000000E+00  0.00000000000E+00 -0.54448902015E+02  0.10636582085E+03  0.91372889387E+02 0.  0.
    9000005    2    3    3    0    0  0.29591594011E+02  0.10337003750E+02  0.86303749650E+01  0.35927824948E+02  0.15290819169E+02 0.  0.
         22    1    3    3    0    0 -0.29591594011E+02 -0.10337003750E+02 -0.63079276980E+02  0.70437995903E+02  0.00000000000E+00 0. -1.
         22    1    4    4    0    0  0.30114128225E+02  0.12171368976E+02  0.66047117895E+01  0.33145514921E+02  0.00000000000E+00 0.  1.
         22    1    4    4    0    0 -0.52253421477E+00 -0.18343652263E+01  0.20256631755E+01  0.27823100276E+01  0.00000000000E+00 0.  1.
<mgrwt>
<rscale>  0 0.91372889E+02</rscale>
<asrwt>0</asrwt>
<pdfrwt beam="2">  1        1 0.12370363E-01 0.91372889E+02</pdfrwt>
<pdfrwt beam="1">  1       -1 0.39936092E-02 0.91372889E+02</pdfrwt>
<totfact> 0.10023177E+05</totfact>
</mgrwt>
</event>
<event>
 7    1  0.3565607E-009  0.9165027E+02  0.7818608E-02  0.1298904E+00
          1   -1    0    0  501    0  0.00000000000E+00  0.00000000000E+00  0.35507143866E+01  0.35507179636E+01  0.50400000000E-02 0. -1.
         -1   -1    0    0    0  501 -0.00000000000E+00 -0.00000000000E+00 -0.59141391257E+03  0.59141391259E+03  0.50400000000E-02 0.  1.
         23    2    1    2    0    0  0.00000000000E+00  0.00000000000E+00 -0.58786319819E+03  0.59496463056E+03  0.91650269139E+02 0.  0.
    9000005    2    3    3    0    0 -0.39367408492E+01 -0.33789593158E+02 -0.49092226694E+03  0.49222817800E+03  0.11254887844E+02 0.  0.
         22    1    3    3    0    0  0.39367408492E+01  0.33789593158E+02 -0.96940931244E+02  0.10273645256E+03  0.00000000000E+00 0. -1.
         22    1    4    4    0    0 -0.36607578413E+01 -0.14895456835E+02 -0.29447055430E+03  0.29486977318E+03  0.00000000000E+00 0. -1.
         22    1    4    4    0    0 -0.27598300788E+00 -0.18894136323E+02 -0.19645171264E+03  0.19735840482E+03  0.00000000000E+00 0. -1.
<mgrwt>
<rscale>  0 0.91650269E+02</rscale>
<asrwt>0</asrwt>
<pdfrwt beam="1">  1        1 0.54626450E-03 0.91650269E+02</pdfrwt>
<pdfrwt beam="2">  1       -1 0.90986678E-01 0.91650269E+02</pdfrwt>
<totfact> 0.41485612E+04</totfact>
</mgrwt>
</event>
<event>
 7    1  0.3565607E-009  0.9094689E+02  0.7818608E-02  0.1300575E+00
         -1   -1    0    0    0  501 -0.00000000000E+00  0.00000000000E+00  0.62487333834E+03  0.62487333836E+03  0.50400000000E-02 0.  1.
          1   -1    0    0  501    0  0.00000000000E+00 -0.00000000000E+00 -0.33092036059E+01  0.33092074439E+01  0.50400000000E-02 0. -1.
         23    2    1    2    0    0  0.00000000000E+00  0.00000000000E+00  0.62156413473E+03  0.62818254580E+03  0.90946892555E+02 0.  0.
    9000005    2    3    3    0    0  0.18594424170E+02  0.40258496115E+02  0.36098936244E+03  0.36386131874E+03  0.10735006377E+02 0.  0.
         22    1    3    3    0    0 -0.18594424170E+02 -0.40258496115E+02  0.26057477229E+03  0.26432122706E+03  0.00000000000E+00 0. -1.
         22    1    4    4    0    0  0.61454788221E+01  0.53351735500E+01  0.85913792152E+02  0.86298381611E+02  0.00000000000E+00 0.  1.
         22    1    4    4    0    0  0.12448945348E+02  0.34923322565E+02  0.27507557029E+03  0.27756293713E+03  0.00000000000E+00 0.  1.
<mgrwt>
<rscale>  0 0.90946893E+02</rscale>
<asrwt>0</asrwt>
<pdfrwt beam="2">  1        1 0.50910835E-03 0.90946893E+02</pdfrwt>
<pdfrwt beam="1">  1       -1 0.96134397E-01 0.90946893E+02</pdfrwt>
<totfact> 0.40642744E+04</totfact>
</mgrwt>
</event>
<event>
 7    1  0.3565607E-009  0.9045566E+02  0.7818608E-02  0.1301752E+00
         -1   -1    0    0    0  501 -0.00000000000E+00  0.00000000000E+00  0.45871042345E+03  0.45871042348E+03  0.50400000000E-02 0.  1.
          1   -1    0    0  501    0  0.00000000000E+00 -0.00000000000E+00 -0.44593622711E+01  0.44593651192E+01  0.50400000000E-02 0. -1.
         23    2    1    2    0    0  0.00000000000E+00  0.00000000000E+00  0.45425106118E+03  0.46316978860E+03  0.90455660336E+02 0.  0.
    9000005    2    3    3    0    0 -0.50429305515E+01 -0.14166214444E+02  0.44544526179E+03  0.44574409254E+03  0.63405047356E+01 0.  0.
         22    1    3    3    0    0  0.50429305515E+01  0.14166214444E+02  0.88057993847E+01  0.17425696056E+02  0.00000000000E+00 0. -1.
         22    1    4    4    0    0 -0.53908513318E+01 -0.14639715794E+02  0.41493703455E+03  0.41523020748E+03  0.00000000000E+00 0.  1.
         22    1    4    4    0    0  0.34792078029E+00  0.47350135005E+00  0.30508227240E+02  0.30513885065E+02  0.00000000000E+00 0.  1.
<mgrwt>
<rscale>  0 0.90455660E+02</rscale>
<asrwt>0</asrwt>
<pdfrwt beam="2">  1        1 0.68605580E-03 0.90455660E+02</pdfrwt>
<pdfrwt beam="1">  1       -1 0.70570850E-01 0.90455660E+02</pdfrwt>
<totfact> 0.50551920E+04</totfact>
</mgrwt>
</event>
<event>
 7    1  0.3565607E-009  0.9464319E+02  0.7818608E-02  0.1291982E+00
          1   -1    0    0  501    0  0.00000000000E+00  0.00000000000E+00  0.25151129056E+02  0.25151129561E+02  0.50400000000E-02 0. -1.
         -1   -1    0    0    0  501 -0.00000000000E+00 -0.00000000000E+00 -0.89035107531E+02  0.89035107673E+02  0.50400000000E-02 0.  1.
         23    2    1    2    0    0  0.00000000000E+00  0.00000000000E+00 -0.63883978475E+02  0.11418623723E+03  0.94643193458E+02 0.  0.
    9000005    2    3    3    0    0  0.43943053256E+02 -0.15331758910E+02 -0.38159740172E+02  0.61009257280E+02  0.99954461218E+01 0.  0.
         22    1    3    3    0    0 -0.43943053256E+02  0.15331758910E+02 -0.25724238303E+02  0.53176979954E+02  0.00000000000E+00 0.  1.
         22    1    4    4    0    0  0.34365803233E+02 -0.74035804003E+01 -0.28854275217E+02  0.45479562804E+02  0.00000000000E+00 0.  1.
         22    1    4    4    0    0  0.95772500232E+01 -0.79281785098E+01 -0.93054649552E+01  0.15529694476E+02  0.00000000000E+00 0.  1.
<mgrwt>
<rscale>  0 0.94643193E+02</rscale>
<asrwt>0</asrwt>
<pdfrwt beam="1">  1        1 0.38694046E-02 0.94643193E+02</pdfrwt>
<pdfrwt beam="2">  1       -1 0.13697709E-01 0.94643193E+02</pdfrwt>
<totfact> 0.75498562E+04</totfact>
</mgrwt>
</event>
<event>
 7    1  0.3565607E-009  0.9154979E+02  0.7818608E-02  0.1299141E+00
         -1   -1    0    0    0  501 -0.00000000000E+00  0.00000000000E+00  0.10628537240E+02  0.10628538435E+02  0.50400000000E-02 0.  1.
          1   -1    0    0  501    0  0.00000000000E+00 -0.00000000000E+00 -0.19714291220E+03  0.19714291226E+03  0.50400000000E-02 0. -1.
         23    2    1    2    0    0  0.00000000000E+00  0.00000000000E+00 -0.18651437496E+03  0.20777145070E+03  0.91549787870E+02 0.  0.
    9000005    2    3    3    0    0 -0.37180224182E+02 -0.12755800103E+02 -0.41858283145E+02  0.57869935011E+02  0.71926353915E+01 0.  0.
         22    1    3    3    0    0  0.37180224182E+02  0.12755800103E+02 -0.14465609181E+03  0.14990151569E+03  0.00000000000E+00 0. -1.
         22    1    4    4    0    0 -0.31944154010E+00 -0.85459435941E+00 -0.10801068721E+00  0.91871689068E+00  0.00000000000E+00 0.  1.
         22    1    4    4    0    0 -0.36860782641E+02 -0.11901205744E+02 -0.41750272458E+02  0.56951218120E+02  0.00000000000E+00 0.  1.
<mgrwt>
<rscale>  0 0.91549788E+02</rscale>
<asrwt>0</asrwt>
<pdfrwt beam="2">  1        1 0.30329676E-01 0.91549788E+02</pdfrwt>
<pdfrwt beam="1">  1       -1 0.16351598E-02 0.91549788E+02</pdfrwt>
<totfact> 0.11678909E+05</totfact>
</mgrwt>
</event>
<event>
 7    1  0.3565607E-009  0.9016159E+02  0.7818608E-02  0.1302461E+00
          1   -1    0    0  501    0  0.00000000000E+00  0.00000000000E+00  0.27024159500E+01  0.27024206498E+01  0.50400000000E-02 0. -1.
         -1   -1    0    0    0  501 -0.00000000000E+00 -0.00000000000E+00 -0.75202194612E+03  0.75202194614E+03  0.50400000000E-02 0.  1.
         23    2    1    2    0    0  0.27755575616E-16  0.00000000000E+00 -0.74931953017E+03  0.75472436679E+03  0.90161585653E+02 0.  0.
    9000005    2    3    3    0    0 -0.13309882443E+00 -0.31262962640E+02 -0.64307083638E+03  0.64397159942E+03  0.13488131936E+02 0.  0.
         22    1    3    3    0    0  0.13309882443E+00  0.31262962640E+02 -0.10624869379E+03  0.11075276737E+03  0.00000000000E+00 0. -1.
         22    1    4    4    0    0 -0.85823271588E+00  0.12560532317E+01 -0.28069076601E+02  0.28110270265E+02  0.00000000000E+00 0. -1.
         22    1    4    4    0    0  0.72513389144E+00 -0.32519015871E+02 -0.61500175978E+03  0.61586132915E+03  0.00000000000E+00 0. -1.
<mgrwt>
<rscale>  0 0.90161586E+02</rscale>
<asrwt>0</asrwt>
<pdfrwt beam="1">  1        1 0.41575726E-03 0.90161586E+02</pdfrwt>
<pdfrwt beam="2">  1       -1 0.11569552E+00 0.90161586E+02</pdfrwt>
<totfact> 0.35633813E+04</totfact>
</mgrwt>
</event>
<event>
 7    1  0.3565607E-009  0.9445059E+02  0.7818608E-02  0.1292418E+00
         -1   -1    0    0    0  501 -0.00000000000E+00  0.00000000000E+00  0.23873369428E+02  0.23873369960E+02  0.50400000000E-02 0.  1.
          1   -1    0    0  501    0  0.00000000000E+00 -0.00000000000E+00 -0.93419094530E+02  0.93419094666E+02  0.50400000000E-02 0. -1.
         23    2    1    2    0    0  0.00000000000E+00  0.00000000000E+00 -0.69545725102E+02  0.11729246463E+03  0.94450592260E+02 0.  0.
    9000005    2    3    3    0    0 -0.25751314168E+02 -0.84134250269E+01  0.10728988418E+02  0.32569707750E+02  0.14551933494E+02 0.  0.
         22    1    3    3    0    0  0.25751314168E+02  0.84134250269E+01 -0.80274713520E+02  0.84722756876E+02  0.00000000000E+00 0. -1.
         22    1    4    4    0    0 -0.25413833523E+02 -0.57981933920E+01  0.53947099194E+01  0.26619257617E+02  0.00000000000E+00 0.  1.
         22    1    4    4    0    0 -0.33748064463E+00 -0.26152316348E+01  0.53342784985E+01  0.59504501333E+01  0.00000000000E+00 0.  1.
<mgrwt>
<rscale>  0 0.94450592E+02</rscale>
<asrwt>0</asrwt>
<pdfrwt beam="2">  1        1 0.14372168E-01 0.94450592E+02</pdfrwt>
<pdfrwt beam="1">  1       -1 0.36728262E-02 0.94450592E+02</pdfrwt>
<totfact> 0.93769060E+04</totfact>
</mgrwt>
</event>
<event>
 7    1  0.3565607E-009  0.9577396E+02  0.7818608E-02  0.1289442E+00
         -1   -1    0    0    0  501 -0.00000000000E+00  0.00000000000E+00  0.35815258779E+02  0.35815259134E+02  0.50400000000E-02 0.  1.
          1   -1    0    0  501    0  0.00000000000E+00 -0.00000000000E+00 -0.64027539654E+02  0.64027539853E+02  0.50400000000E-02 0. -1.
         23    2    1    2    0    0  0.00000000000E+00 -0.88817841970E-15 -0.28212280875E+02  0.99842798986E+02  0.95773961582E+02 0.  0.
    9000005    2    3    3    0    0  0.23753987755E+02  0.68938776728E+01 -0.56593056716E+02  0.62196472193E+02  0.73382287488E+01 0.  0.
         22    1    3    3    0    0 -0.23753987755E+02 -0.68938776728E+01  0.28380775841E+02  0.37646326793E+02  0.00000000000E+00 0.  1.
         22    1    4    4    0    0  0.21208002166E+02  0.81836451697E+01 -0.47372589519E+02  0.52544396865E+02  0.00000000000E+00 0. -1.
         22    1    4    4    0    0  0.25459855898E+01 -0.12897674969E+01 -0.92204671973E+01  0.96520753289E+01  0.00000000000E+00 0. -1.
<mgrwt>
<rscale>  0 0.95773962E+02</rscale>
<asrwt>0</asrwt>
<pdfrwt beam="2">  1        1 0.98503907E-02 0.95773962E+02</pdfrwt>
<pdfrwt beam="1">  1       -1 0.55100399E-02 0.95773962E+02</pdfrwt>
<totfact> 0.84890327E+04</totfact>
</mgrwt>
</event>
<event>
 7    1  0.3565607E-009  0.9334205E+02  0.7818608E-02  0.1294954E+00
          1   -1    0    0  501    0  0.00000000000E+00  0.00000000000E+00  0.67452010703E+02  0.67452010891E+02  0.50400000000E-02 0. -1.
         -1   -1    0    0    0  501 -0.00000000000E+00 -0.00000000000E+00 -0.32292359306E+02  0.32292359700E+02  0.50400000000E-02 0.  1.
         23    2    1    2    0    0  0.00000000000E+00  0.71054273576E-14  0.35159651397E+02  0.99744370591E+02  0.93342050429E+02 0.  0.
    9000005    2    3    3    0    0 -0.20589084486E+02 -0.40903762985E+02  0.11691500000E+02  0.48287764054E+02  0.98989271519E+01 0.  0.
         22    1    3    3    0    0  0.20589084486E+02  0.40903762985E+02  0.23468151397E+02  0.51456606537E+02  0.00000000000E+00 0. -1.
         22    1    4    4    0    0 -0.38925208284E+01 -0.38355497237E+01 -0.12817613312E+01  0.56130270080E+01  0.00000000000E+00 0. -1.
         22    1    4    4    0    0 -0.16696563657E+02 -0.37068213262E+02  0.12973261331E+02  0.42674737046E+02  0.00000000000E+00 0. -1.
<mgrwt>
<rscale>  0 0.93342050E+02</rscale>
<asrwt>0</asrwt>
<pdfrwt beam="1">  1        1 0.10377232E-01 0.93342050E+02</pdfrwt>
<pdfrwt beam="2">  1       -1 0.49680554E-02 0.93342050E+02</pdfrwt>
<totfact> 0.91932906E+04</totfact>
</mgrwt>
</event>
<event>
 7    1  0.3565607E-009  0.8884527E+02  0.7818608E-02  0.1305672E+00
          1   -1    0    0  501    0  0.00000000000E+00  0.00000000000E+00  0.28213402042E+02  0.28213402492E+02  0.50400000000E-02 0. -1.
         -1   -1    0    0    0  501 -0.00000000000E+00 -0.00000000000E+00 -0.69944431430E+02  0.69944431612E+02  0.50400000000E-02 0.  1.
         23    2    1    2    0    0  0.00000000000E+00  0.00000000000E+00 -0.41731029389E+02  0.98157834104E+02  0.88845267640E+02 0.  0.
    9000005    2    3    3    0    0  0.16694489613E+02 -0.98876767353E+01  0.21185289626E+02  0.32317608307E+02  0.14803350144E+02 0.  0.
         22    1    3    3    0    0 -0.16694489613E+02  0.98876767353E+01 -0.62916319014E+02  0.65840225797E+02  0.00000000000E+00 0.  1.
         22    1    4    4    0    0  0.12790806706E+02 -0.65597072279E+00  0.60507126388E+01  0.14164962309E+02  0.00000000000E+00 0. -1.
         22    1    4    4    0    0  0.39036829071E+01 -0.92317060125E+01  0.15134576987E+02  0.18152645997E+02  0.00000000000E+00 0. -1.
<mgrwt>
<rscale>  0 0.88845268E+02</rscale>
<asrwt>0</asrwt>
<pdfrwt beam="1">  1        1 0.43405235E-02 0.88845268E+02</pdfrwt>
<pdfrwt beam="2">  1       -1 0.10760682E-01 0.88845268E+02</pdfrwt>
<totfact> 0.92452197E+04</totfact>
</mgrwt>
</event>
<event>
 7    1  0.3565607E-009  0.8902082E+02  0.7818608E-02  0.1305240E+00
         -1   -1    0    0    0  501 -0.00000000000E+00  0.00000000000E+00  0.98999073535E+01  0.98999086364E+01  0.50400000000E-02 0.  1.
          1   -1    0    0  501    0  0.00000000000E+00 -0.00000000000E+00 -0.20012068671E+03  0.20012068677E+03  0.50400000000E-02 0. -1.
         23    2    1    2    0    0  0.00000000000E+00  0.00000000000E+00 -0.19022077935E+03  0.21002059541E+03  0.89020815528E+02 0.  0.
    9000005    2    3    3    0    0 -0.23210874567E+02  0.37500701947E+02 -0.97053336784E+02  0.10694188907E+03  0.84952994470E+01 0.  0.
         22    1    3    3    0    0  0.23210874567E+02 -0.37500701947E+02 -0.93167442570E+02  0.10307870633E+03  0.00000000000E+00 0. -1.
         22    1    4    4    0    0 -0.68292083762E+01  0.51015782079E+01 -0.15998824211E+02  0.18128060111E+02  0.00000000000E+00 0. -1.
         22    1    4    4    0    0 -0.16381666191E+02  0.32399123739E+02 -0.81054512573E+02  0.88813828961E+02  0.00000000000E+00 0. -1.
<mgrwt>
<rscale>  0 0.89020816E+02</rscale>
<asrwt>0</asrwt>
<pdfrwt beam="2">  1        1 0.30787795E-01 0.89020816E+02</pdfrwt>
<pdfrwt beam="1">  1       -1 0.15230629E-02 0.89020816E+02</pdfrwt>
<totfact> 0.12625304E+05</totfact>
</mgrwt>
</event>
<event>
 7    1  0.3565607E-009  0.9139539E+02  0.7818608E-02  0.1299507E+00
          1   -1    0    0  501    0  0.00000000000E+00  0.00000000000E+00  0.56431737050E+03  0.56431737053E+03  0.50400000000E-02 0. -1.
         -1   -1    0    0    0  501 -0.00000000000E+00 -0.00000000000E+00 -0.37005385845E+01  0.37005420167E+01  0.50400000000E-02 0.  1.
         23    2    1    2    0    0  0.00000000000E+00  0.00000000000E+00  0.56061683192E+03  0.56801791254E+03  0.91395386856E+02 0.  0.
    9000005    2    3    3    0    0 -0.43699920769E+02  0.11680745087E+02  0.29274530837E+03  0.29635400989E+03  0.89308856651E+01 0.  0.
         22    1    3    3    0    0  0.43699920769E+02 -0.11680745087E+02  0.26787152354E+03  0.27166390266E+03  0.00000000000E+00 0.  1.
         22    1    4    4    0    0 -0.19366178537E+02  0.15033245453E+01  0.14131278110E+03  0.14264154709E+03  0.00000000000E+00 0.  1.
         22    1    4    4    0    0 -0.24333742232E+02  0.10177420541E+02  0.15143252728E+03  0.15371246279E+03  0.00000000000E+00 0.  1.
<mgrwt>
<rscale>  0 0.91395387E+02</rscale>
<asrwt>0</asrwt>
<pdfrwt beam="1">  1        1 0.86818005E-01 0.91395387E+02</pdfrwt>
<pdfrwt beam="2">  1       -1 0.56931424E-03 0.91395387E+02</pdfrwt>
<totfact> 0.14008102E+05</totfact>
</mgrwt>
</event>
<event>
 7    1  0.3565607E-009  0.9062061E+02  0.7818608E-02  0.1301356E+00
         -1   -1    0    0    0  501 -0.00000000000E+00  0.00000000000E+00  0.95054215702E+02  0.95054215836E+02  0.50400000000E-02 0.  1.
          1   -1    0    0  501    0  0.00000000000E+00 -0.00000000000E+00 -0.21598451798E+02  0.21598452386E+02  0.50400000000E-02 0. -1.
         23    2    1    2    0    0  0.00000000000E+00  0.00000000000E+00  0.73455763905E+02  0.11665266822E+03  0.90620614390E+02 0.  0.
    9000005    2    3    3    0    0 -0.15860005978E+02 -0.16765689090E+02 -0.11841573207E+02  0.28288287170E+02  0.11286107154E+02 0.  0.
         22    1    3    3    0    0  0.15860005978E+02  0.16765689090E+02  0.85297337112E+02  0.88364381052E+02  0.00000000000E+00 0.  1.
         22    1    4    4    0    0 -0.98092607143E+01 -0.69072583140E+01 -0.11645043151E+02  0.16719415156E+02  0.00000000000E+00 0.  1.
         22    1    4    4    0    0 -0.60507452636E+01 -0.98584307758E+01 -0.19653005663E+00  0.11568872014E+02  0.00000000000E+00 0.  1.
<mgrwt>
<rscale>  0 0.90620614E+02</rscale>
<asrwt>0</asrwt>
<pdfrwt beam="2">  1        1 0.33228388E-02 0.90620614E+02</pdfrwt>
<pdfrwt beam="1">  1       -1 0.14623726E-01 0.90620614E+02</pdfrwt>
<totfact> 0.83434740E+04</totfact>
</mgrwt>
</event>
<event>
 7    1  0.3565607E-009  0.9380413E+02  0.7818608E-02  0.1293892E+00
         -1   -1    0    0    0  501 -0.00000000000E+00  0.00000000000E+00  0.34924311394E+02  0.34924311758E+02  0.50400000000E-02 0.  1.
          1   -1    0    0  501    0  0.00000000000E+00 -0.00000000000E+00 -0.62987749578E+02  0.62987749779E+02  0.50400000000E-02 0. -1.
         23    2    1    2    0    0  0.00000000000E+00  0.00000000000E+00 -0.28063438183E+02  0.97912061537E+02  0.93804132274E+02 0.  0.
    9000005    2    3    3    0    0 -0.39946566810E+02  0.55475662760E+01 -0.37521563888E+02  0.56487916001E+02  0.12510523811E+02 0.  0.
         22    1    3    3    0    0  0.39946566810E+02 -0.55475662760E+01  0.94581257047E+01  0.41424145536E+02  0.00000000000E+00 0.  1.
         22    1    4    4    0    0 -0.20967396489E+02  0.22722524039E+01 -0.11220821627E+02  0.23889363418E+02  0.00000000000E+00 0.  1.
         22    1    4    4    0    0 -0.18979170321E+02  0.32753138721E+01 -0.26300742261E+02  0.32598552583E+02  0.00000000000E+00 0.  1.
<mgrwt>
<rscale>  0 0.93804132E+02</rscale>
<asrwt>0</asrwt>
<pdfrwt beam="2">  1        1 0.96904230E-02 0.93804132E+02</pdfrwt>
<pdfrwt beam="1">  1       -1 0.53729710E-02 0.93804132E+02</pdfrwt>
<totfact> 0.89719911E+04</totfact>
</mgrwt>
</event>
<event>
 7    1  0.3565607E-009  0.9433117E+02  0.7818608E-02  0.1292690E+00
         -1   -1    0    0    0  501 -0.00000000000E+00  0.00000000000E+00  0.58122784910E+01  0.58122806762E+01  0.50400000000E-02 0.  1.
          1   -1    0    0  501    0  0.00000000000E+00 -0.00000000000E+00 -0.38274012021E+03  0.38274012025E+03  0.50400000000E-02 0. -1.
         23    2    1    2    0    0  0.00000000000E+00  0.00000000000E+00 -0.37692784172E+03  0.38855240092E+03  0.94331174049E+02 0.  0.
    9000005    2    3    3    0    0  0.40207557860E+02 -0.17886365870E+02 -0.25429798795E+03  0.25826559872E+03  0.98530711714E+01 0.  0.
         22    1    3    3    0    0 -0.40207557860E+02  0.17886365870E+02 -0.12262985377E+03  0.13028680221E+03  0.00000000000E+00 0. -1.
         22    1    4    4    0    0  0.17564689963E+02 -0.13200576405E+02 -0.12488527039E+03  0.12680340812E+03  0.00000000000E+00 0. -1.
         22    1    4    4    0    0  0.22642867897E+02 -0.46857894652E+01 -0.12941271756E+03  0.13146219060E+03  0.00000000000E+00 0. -1.
<mgrwt>
<rscale>  0 0.94331174E+02</rscale>
<asrwt>0</asrwt>
<pdfrwt beam="2">  1        1 0.58883076E-01 0.94331174E+02</pdfrwt>
<pdfrwt beam="1">  1       -1 0.89419716E-03 0.94331174E+02</pdfrwt>
<totfact> 0.12231025E+05</totfact>
</mgrwt>
</event>
<event>
 7    1  0.5056960E-009  0.9016992E+02  0.7818608E-02  0.1302441E+00
          1   -1    0    0  501    0  0.00000000000E+00  0.00000000000E+00  0.10388845357E+04  0.10388845357E+04  0.50400000000E-02 0. -1.
         -1   -1    0    0    0  501 -0.00000000000E+00 -0.00000000000E+00 -0.19565699283E+01  0.19565764197E+01  0.50400000000E-02 0.  1.
         23    2    1    2    0    0  0.00000000000E+00  0.88817841970E-15  0.10369279658E+04  0.10408411121E+04  0.90169920176E+02 0.  0.
    9000005    2    3    3    0    0  0.33022673229E+02 -0.73361240108E+01  0.85353232245E+03  0.85435176217E+03  0.15974741933E+02 0.  0.
         22    1    3    3    0    0 -0.33022673229E+02  0.73361240108E+01  0.18339564331E+03  0.18648934995E+03  0.00000000000E+00 0.  1.
         22    1    4    4    0    0  0.31286305687E+02 -0.72866129001E+01  0.63458784801E+03  0.63540039699E+03  0.00000000000E+00 0.  1.
         22    1    4    4    0    0  0.17363675426E+01 -0.49511110736E-01  0.21894447444E+03  0.21895136518E+03  0.00000000000E+00 0.  1.
<mgrwt>
<rscale>  0 0.90169920E+02</rscale>
<asrwt>0</asrwt>
<pdfrwt beam="1">  1        1 0.15982827E+00 0.90169920E+02</pdfrwt>
<pdfrwt beam="2">  1       -1 0.30101149E-03 0.90169920E+02</pdfrwt>
<totfact> 0.13855271E+05</totfact>
</mgrwt>
</event>
<event>
 7    1  0.3565607E-009  0.9185603E+02  0.7818608E-02  0.1298418E+00
         -1   -1    0    0    0  501 -0.00000000000E+00  0.00000000000E+00  0.28444513944E+01  0.28444558595E+01  0.50400000000E-02 0.  1.
          1   -1    0    0  501    0  0.00000000000E+00 -0.00000000000E+00 -0.74157747520E+03  0.74157747522E+03  0.50400000000E-02 0. -1.
         23    2    1    2    0    0  0.00000000000E+00  0.00000000000E+00 -0.73873302381E+03  0.74442193108E+03  0.91856034134E+02 0.  0.
    9000005    2    3    3    0    0 -0.20233429517E+02  0.22853070796E+02 -0.64726585372E+03  0.64799632390E+03  0.38073466932E+01 0.  0.
         22    1    3    3    0    0  0.20233429517E+02 -0.22853070796E+02 -0.91467170093E+02  0.96425607178E+02  0.00000000000E+00 0.  1.
         22    1    4    4    0    0 -0.65090038242E+00  0.21931957598E+01 -0.51599417171E+02  0.51650107757E+02  0.00000000000E+00 0.  1.
         22    1    4    4    0    0 -0.19582529135E+02  0.20659875036E+02 -0.59566643655E+03  0.59634621615E+03  0.00000000000E+00 0.  1.
<mgrwt>
<rscale>  0 0.91856034E+02</rscale>
<asrwt>0</asrwt>
<pdfrwt beam="2">  1        1 0.11408869E+00 0.91856034E+02</pdfrwt>
<pdfrwt beam="1">  1       -1 0.43760884E-03 0.91856034E+02</pdfrwt>
<totfact> 0.13921578E+05</totfact>
</mgrwt>
</event>
<event>
 7    1  0.3565607E-009  0.8893037E+02  0.7818608E-02  0.1305463E+00
         -1   -1    0    0    0  501 -0.00000000000E+00  0.00000000000E+00  0.50577916063E+02  0.50577916314E+02  0.50400000000E-02 0.  1.
          1   -1    0    0  501    0  0.00000000000E+00 -0.00000000000E+00 -0.39091225076E+02  0.39091225401E+02  0.50400000000E-02 0. -1.
         23    2    1    2    0    0  0.00000000000E+00  0.00000000000E+00  0.11486690987E+02  0.89669141715E+02  0.88930371112E+02 0.  0.
    9000005    2    3    3    0    0 -0.19770913094E+02 -0.11674227873E+01  0.45478160911E+02  0.50328680252E+02  0.85124059764E+01 0.  0.
         22    1    3    3    0    0  0.19770913094E+02  0.11674227873E+01 -0.33991469924E+02  0.39340461463E+02  0.00000000000E+00 0. -1.
         22    1    4    4    0    0 -0.50162357972E+01 -0.24217847368E+01  0.20944331420E+02  0.21672394458E+02  0.00000000000E+00 0.  1.
         22    1    4    4    0    0 -0.14754677297E+02  0.12543619495E+01  0.24533829491E+02  0.28656285794E+02  0.00000000000E+00 0.  1.
<mgrwt>
<rscale>  0 0.88930371E+02</rscale>
<asrwt>0</asrwt>
<pdfrwt beam="2">  1        1 0.60140347E-02 0.88930371E+02</pdfrwt>
<pdfrwt beam="1">  1       -1 0.77812179E-02 0.88930371E+02</pdfrwt>
<totfact> 0.96931068E+04</totfact>
</mgrwt>
</event>
<event>
 7    1  0.3565607E-009  0.8973523E+02  0.7818608E-02  0.1303494E+00
         -1   -1    0    0    0  501 -0.00000000000E+00  0.00000000000E+00  0.16546801986E+03  0.16546801994E+03  0.50400000000E-02 0.  1.
          1   -1    0    0  501    0  0.00000000000E+00 -0.00000000000E+00 -0.12166113175E+02  0.12166114219E+02  0.50400000000E-02 0. -1.
         23    2    1    2    0    0  0.00000000000E+00  0.00000000000E+00  0.15330190669E+03  0.17763413416E+03  0.89735227332E+02 0.  0.
    9000005    2    3    3    0    0 -0.27530981715E+01  0.44075412209E+02  0.66309439994E+02  0.80074353653E+02  0.80460406161E+01 0.  0.
         22    1    3    3    0    0  0.27530981715E+01 -0.44075412209E+02  0.86992466696E+02  0.97559780508E+02  0.00000000000E+00 0.  1.
         22    1    4    4    0    0 -0.25065184158E+00  0.26256236440E+02  0.32566170893E+02  0.41833100112E+02  0.00000000000E+00 0. -1.
         22    1    4    4    0    0 -0.25024463299E+01  0.17819175769E+02  0.33743269101E+02  0.38241253541E+02  0.00000000000E+00 0. -1.
<mgrwt>
<rscale>  0 0.89735227E+02</rscale>
<asrwt>0</asrwt>
<pdfrwt beam="2">  1        1 0.18717098E-02 0.89735227E+02</pdfrwt>
<pdfrwt beam="1">  1       -1 0.25456618E-01 0.89735227E+02</pdfrwt>
<totfact> 0.76119444E+04</totfact>
</mgrwt>
</event>
<event>
 7    1  0.3565607E-009  0.8962536E+02  0.7818608E-02  0.1303761E+00
         -1   -1    0    0    0  501 -0.00000000000E+00  0.00000000000E+00  0.64557687252E+03  0.64557687254E+03  0.50400000000E-02 0.  1.
          1   -1    0    0  501    0  0.00000000000E+00 -0.00000000000E+00 -0.31106673895E+01  0.31106714724E+01  0.50400000000E-02 0. -1.
         23    2    1    2    0    0  0.00000000000E+00  0.00000000000E+00  0.64246620514E+03  0.64868754402E+03  0.89625359255E+02 0.  0.
    9000005    2    3    3    0    0 -0.38523335549E+02 -0.17731494985E+02  0.40431441309E+03  0.40678936430E+03  0.14456451109E+02 0.  0.
         22    1    3    3    0    0  0.38523335549E+02  0.17731494985E+02  0.23815179204E+03  0.24189817971E+03  0.00000000000E+00 0.  1.
         22    1    4    4    0    0 -0.15419107440E+02 -0.11068540410E+02  0.12384211100E+03  0.12528818747E+03  0.00000000000E+00 0.  1.
         22    1    4    4    0    0 -0.23104228109E+02 -0.66629545750E+01  0.28047230209E+03  0.28150117684E+03  0.00000000000E+00 0.  1.
<mgrwt>
<rscale>  0 0.89625359E+02</rscale>
<asrwt>0</asrwt>
<pdfrwt beam="2">  1        1 0.47856408E-03 0.89625359E+02</pdfrwt>
<pdfrwt beam="1">  1       -1 0.99319613E-01 0.89625359E+02</pdfrwt>
<totfact> 0.41184158E+04</totfact>
</mgrwt>
</event>
<event>
 7    1  0.3565607E-009  0.8957837E+02  0.7818608E-02  0.1303876E+00
          1   -1    0    0  501    0  0.00000000000E+00  0.00000000000E+00  0.63229064150E+02  0.63229064351E+02  0.50400000000E-02 0. -1.
         -1   -1    0    0    0  501 -0.00000000000E+00 -0.00000000000E+00 -0.31727042839E+02  0.31727043239E+02  0.50400000000E-02 0.  1.
         23    2    1    2    0    0  0.00000000000E+00  0.88817841970E-15  0.31502021311E+02  0.94956107591E+02  0.89578373629E+02 0.  0.
    9000005    2    3    3    0    0  0.26275167425E+02  0.78563012790E+01  0.52997525408E+02  0.60111271684E+02  0.72471643471E+01 0.  0.
         22    1    3    3    0    0 -0.26275167425E+02 -0.78563012790E+01 -0.21495504097E+02  0.34844835907E+02  0.00000000000E+00 0.  1.
         22    1    4    4    0    0  0.20675568843E+02  0.81646385424E+01  0.46416476222E+02  0.51464839788E+02  0.00000000000E+00 0. -1.
         22    1    4    4    0    0  0.55995985815E+01 -0.30833726343E+00  0.65810491864E+01  0.86464318962E+01  0.00000000000E+00 0. -1.
<mgrwt>
<rscale>  0 0.89578374E+02</rscale>
<asrwt>0</asrwt>
<pdfrwt beam="1">  1        1 0.97275483E-02 0.89578374E+02</pdfrwt>
<pdfrwt beam="2">  1       -1 0.48810836E-02 0.89578374E+02</pdfrwt>
<totfact> 0.10200491E+05</totfact>
</mgrwt>
</event>
<event>
 7    1  0.3565607E-009  0.9079646E+02  0.7818608E-02  0.1300934E+00
          1   -1    0    0  501    0  0.00000000000E+00  0.00000000000E+00  0.21393300172E+02  0.21393300766E+02  0.50400000000E-02 0. -1.
         -1   -1    0    0    0  501 -0.00000000000E+00 -0.00000000000E+00 -0.96338541233E+02  0.96338541365E+02  0.50400000000E-02 0.  1.
         23    2    1    2    0    0  0.00000000000E+00 -0.44408920985E-15 -0.74945241060E+02  0.11773184213E+03  0.90796461902E+02 0.  0.
    9000005    2    3    3    0    0  0.21995616767E+02 -0.26315718150E+01  0.10863488071E+02  0.29109777597E+02  0.15447700525E+02 0.  0.
         22    1    3    3    0    0 -0.21995616767E+02  0.26315718150E+01 -0.85808729131E+02  0.88622064534E+02  0.00000000000E+00 0.  1.
         22    1    4    4    0    0  0.86009652294E+00 -0.44777343963E+01 -0.11853511194E+01  0.47111493958E+01  0.00000000000E+00 0.  1.
         22    1    4    4    0    0  0.21135520244E+02  0.18461625814E+01  0.12048839190E+02  0.24398628201E+02  0.00000000000E+00 0.  1.
<mgrwt>
<rscale>  0 0.90796462E+02</rscale>
<asrwt>0</asrwt>
<pdfrwt beam="1">  1        1 0.32912771E-02 0.90796462E+02</pdfrwt>
<pdfrwt beam="2">  1       -1 0.14821314E-01 0.90796462E+02</pdfrwt>
<totfact> 0.82817804E+04</totfact>
</mgrwt>
</event>
<event>
 7    1  0.3565607E-009  0.9354705E+02  0.7818608E-02  0.1294482E+00
         -1   -1    0    0    0  501 -0.00000000000E+00  0.00000000000E+00  0.86225309217E+02  0.86225309365E+02  0.50400000000E-02 0.  1.
          1   -1    0    0  501    0  0.00000000000E+00 -0.00000000000E+00 -0.25372628040E+02  0.25372628541E+02  0.50400000000E-02 0. -1.
         23    2    1    2    0    0  0.00000000000E+00  0.00000000000E+00  0.60852681177E+02  0.11159793791E+03  0.93547052002E+02 0.  0.
    9000005    2    3    3    0    0 -0.45721808587E+02  0.75287477965E+01  0.24131636587E+02  0.52474330610E+02  0.49044535648E+01 0.  0.
         22    1    3    3    0    0  0.45721808587E+02 -0.75287477965E+01  0.36721044590E+02  0.59123607295E+02  0.00000000000E+00 0.  1.
         22    1    4    4    0    0 -0.46715982176E+01  0.22509108845E+01  0.32108527288E+01  0.60991806796E+01  0.00000000000E+00 0. -1.
         22    1    4    4    0    0 -0.41050210369E+02  0.52778369121E+01  0.20920783859E+02  0.46375149931E+02  0.00000000000E+00 0. -1.
<mgrwt>
<rscale>  0 0.93547052E+02</rscale>
<asrwt>0</asrwt>
<pdfrwt beam="2">  1        1 0.39034813E-02 0.93547052E+02</pdfrwt>
<pdfrwt beam="1">  1       -1 0.13265432E-01 0.93547052E+02</pdfrwt>
<totfact> 0.78237972E+04</totfact>
</mgrwt>
</event>
<event>
 7    1  0.3565607E-009  0.8989074E+02  0.7818608E-02  0.1303116E+00
         -1   -1    0    0    0  501 -0.00000000000E+00  0.00000000000E+00  0.84010604938E+01  0.84010620056E+01  0.50400000000E-02 0.  1.
          1   -1    0    0  501    0  0.00000000000E+00 -0.00000000000E+00 -0.24045609285E+03  0.24045609290E+03  0.50400000000E-02 0. -1.
         23    2    1    2    0    0  0.17763568394E-14  0.00000000000E+00 -0.23205503236E+03  0.24885715491E+03  0.89890742056E+02 0.  0.
    9000005    2    3    3    0    0 -0.15820685207E+02 -0.40863668214E+02 -0.13163789300E+03  0.13929559533E+03  0.12433605475E+02 0.  0.
         22    1    3    3    0    0  0.15820685207E+02  0.40863668214E+02 -0.10041713936E+03  0.10956155958E+03  0.00000000000E+00 0.  1.
         22    1    4    4    0    0 -0.85178025651E+01 -0.27185316852E+02 -0.66644636079E+02  0.72478285928E+02  0.00000000000E+00 0. -1.
         22    1    4    4    0    0 -0.73028826424E+01 -0.13678351362E+02 -0.64993256921E+02  0.66817309405E+02  0.00000000000E+00 0. -1.
<mgrwt>
<rscale>  0 0.89890742E+02</rscale>
<asrwt>0</asrwt>
<pdfrwt beam="2">  1        1 0.36993240E-01 0.89890742E+02</pdfrwt>
<pdfrwt beam="1">  1       -1 0.12924712E-02 0.89890742E+02</pdfrwt>
<totfact> 0.12747933E+05</totfact>
</mgrwt>
</event>
<event>
 7    1  0.3565607E-009  0.9129357E+02  0.7818608E-02  0.1299749E+00
          1   -1    0    0  501    0  0.00000000000E+00  0.00000000000E+00  0.74152332495E+03  0.74152332497E+03  0.50400000000E-02 0. -1.
         -1   -1    0    0    0  501 -0.00000000000E+00 -0.00000000000E+00 -0.28099283162E+01  0.28099328362E+01  0.50400000000E-02 0.  1.
         23    2    1    2    0    0  0.44408920985E-15 -0.35527136788E-14  0.73871339664E+03  0.74433325781E+03  0.91293572096E+02 0.  0.
    9000005    2    3    3    0    0  0.37327753334E+01 -0.31422382588E+02  0.63362993905E+03  0.63458886024E+03  0.14656812024E+02 0.  0.
         22    1    3    3    0    0 -0.37327753334E+01  0.31422382588E+02  0.10508345758E+03  0.10974439757E+03  0.00000000000E+00 0.  1.
         22    1    4    4    0    0 -0.39858429891E+01 -0.12052477914E+02  0.32983463626E+03  0.33007883369E+03  0.00000000000E+00 0.  1.
         22    1    4    4    0    0  0.77186183225E+01 -0.19369904674E+02  0.30379530279E+03  0.30451002655E+03  0.00000000000E+00 0.  1.
<mgrwt>
<rscale>  0 0.91293572E+02</rscale>
<asrwt>0</asrwt>
<pdfrwt beam="1">  1        1 0.11408051E+00 0.91293572E+02</pdfrwt>
<pdfrwt beam="2">  1       -1 0.43229701E-03 0.91293572E+02</pdfrwt>
<totfact> 0.14149699E+05</totfact>
</mgrwt>
</event>
<event>
 7    1  0.3565607E-009  0.1009242E+03  0.7818608E-02  0.1278364E+00
          1   -1    0    0  501    0  0.00000000000E+00  0.00000000000E+00  0.65128387246E+03  0.65128387248E+03  0.50400000000E-02 0. -1.
         -1   -1    0    0    0  501 -0.00000000000E+00 -0.00000000000E+00 -0.39098507608E+01  0.39098540092E+01  0.50400000000E-02 0.  1.
         23    2    1    2    0    0  0.00000000000E+00  0.00000000000E+00  0.64737402170E+03  0.65519372649E+03  0.10092420552E+03 0.  0.
    9000005    2    3    3    0    0  0.38543684096E+02 -0.10431393367E+02  0.52354312568E+03  0.52508407904E+03  0.46320685514E+01 0.  0.
         22    1    3    3    0    0 -0.38543684096E+02  0.10431393367E+02  0.12383089601E+03  0.13010964745E+03  0.00000000000E+00 0.  1.
         22    1    4    4    0    0  0.21710079743E+02 -0.62325228889E+01  0.26600159297E+03  0.26695883459E+03  0.00000000000E+00 0.  1.
         22    1    4    4    0    0  0.16833604354E+02 -0.41988704777E+01  0.25754153272E+03  0.25812524445E+03  0.00000000000E+00 0.  1.
<mgrwt>
<rscale>  0 0.10092421E+03</rscale>
<asrwt>0</asrwt>
<pdfrwt beam="1">  1        1 0.10019749E+00 0.10092421E+03</pdfrwt>
<pdfrwt beam="2">  1       -1 0.60151592E-03 0.10092421E+03</pdfrwt>
<totfact> 0.10846040E+05</totfact>
</mgrwt>
</event>
<event>
 7    1  0.3565607E-009  0.9274469E+02  0.7818608E-02  0.1296338E+00
         -1   -1    0    0    0  501 -0.00000000000E+00  0.00000000000E+00  0.91209589671E+01  0.91209603596E+01  0.50400000000E-02 0.  1.
          1   -1    0    0  501    0  0.00000000000E+00 -0.00000000000E+00 -0.23576407208E+03  0.23576407213E+03  0.50400000000E-02 0. -1.
         23    2    1    2    0    0  0.00000000000E+00  0.00000000000E+00 -0.22664311311E+03  0.24488503249E+03  0.92744694823E+02 0.  0.
    9000005    2    3    3    0    0 -0.22788653973E+02 -0.32199946671E+02 -0.53769655996E+02  0.67567826642E+02  0.10866276990E+02 0.  0.
         22    1    3    3    0    0  0.22788653973E+02  0.32199946671E+02 -0.17287345712E+03  0.17731720585E+03  0.00000000000E+00 0. -1.
         22    1    4    4    0    0 -0.21721603225E+02 -0.31286131620E+02 -0.54063521871E+02  0.66132552314E+02  0.00000000000E+00 0.  1.
         22    1    4    4    0    0 -0.10670507475E+01 -0.91381505083E+00  0.29386587457E+00  0.14352743282E+01  0.00000000000E+00 0.  1.
<mgrwt>
<rscale>  0 0.92744695E+02</rscale>
<asrwt>0</asrwt>
<pdfrwt beam="2">  1        1 0.36271391E-01 0.92744695E+02</pdfrwt>
<pdfrwt beam="1">  1       -1 0.14032247E-02 0.92744695E+02</pdfrwt>
<totfact> 0.11680654E+05</totfact>
</mgrwt>
</event>
<event>
 7    1  0.3565607E-009  0.9028437E+02  0.7818608E-02  0.1302165E+00
         -1   -1    0    0    0  501 -0.00000000000E+00  0.00000000000E+00  0.12806239855E+02  0.12806240846E+02  0.50400000000E-02 0.  1.
          1   -1    0    0  501    0  0.00000000000E+00 -0.00000000000E+00 -0.15912684599E+03  0.15912684607E+03  0.50400000000E-02 0. -1.
         23    2    1    2    0    0  0.00000000000E+00  0.00000000000E+00 -0.14632060614E+03  0.17193308692E+03  0.90284365185E+02 0.  0.
    9000005    2    3    3    0    0 -0.28662134993E+02 -0.27818279668E+02 -0.39823731225E+02  0.58192333307E+02  0.14319337306E+02 0.  0.
         22    1    3    3    0    0  0.28662134993E+02  0.27818279668E+02 -0.10649687491E+03  0.11374075361E+03  0.00000000000E+00 0. -1.
         22    1    4    4    0    0 -0.24950478692E+02 -0.28325115597E+02 -0.31874650172E+02  0.49404775924E+02  0.00000000000E+00 0.  1.
         22    1    4    4    0    0 -0.37116563012E+01  0.50683592868E+00 -0.79490810532E+01  0.87875573824E+01  0.00000000000E+00 0.  1.
<mgrwt>
<rscale>  0 0.90284365E+02</rscale>
<asrwt>0</asrwt>
<pdfrwt beam="2">  1        1 0.24481052E-01 0.90284365E+02</pdfrwt>
<pdfrwt beam="1">  1       -1 0.19701909E-02 0.90284365E+02</pdfrwt>
<totfact> 0.11640534E+05</totfact>
</mgrwt>
</event>
<event>
 7    1  0.3565607E-009  0.9050610E+02  0.7818608E-02  0.1301631E+00
         -1   -1    0    0    0  501 -0.00000000000E+00  0.00000000000E+00  0.76792961578E+02  0.76792961744E+02  0.50400000000E-02 0.  1.
          1   -1    0    0  501    0  0.00000000000E+00 -0.00000000000E+00 -0.26667007872E+02  0.26667008349E+02  0.50400000000E-02 0. -1.
         23    2    1    2    0    0  0.35527136788E-14  0.00000000000E+00  0.50125953706E+02  0.10345997009E+03  0.90506100217E+02 0.  0.
    9000005    2    3    3    0    0 -0.23474513419E+02  0.38366130077E+02  0.30172071442E+02  0.54254582840E+02  0.31926707746E+01 0.  0.
         22    1    3    3    0    0  0.23474513419E+02 -0.38366130077E+02  0.19953882264E+02  0.49205387253E+02  0.00000000000E+00 0.  1.
         22    1    4    4    0    0 -0.18506385283E+02  0.32432684675E+02  0.24532710544E+02  0.44679069128E+02  0.00000000000E+00 0.  1.
         22    1    4    4    0    0 -0.49681281358E+01  0.59334454015E+01  0.56393608984E+01  0.95755137120E+01  0.00000000000E+00 0.  1.
<mgrwt>
<rscale>  0 0.90506100E+02</rscale>
<asrwt>0</asrwt>
<pdfrwt beam="2">  1        1 0.41026167E-02 0.90506100E+02</pdfrwt>
<pdfrwt beam="1">  1       -1 0.11814302E-01 0.90506100E+02</pdfrwt>
<totfact> 0.86857125E+04</totfact>
</mgrwt>
</event>
<event>
 7    1  0.3565607E-009  0.9137569E+02  0.7818608E-02  0.1299554E+00
          1   -1    0    0  501    0  0.00000000000E+00  0.00000000000E+00  0.34611649511E+03  0.34611649515E+03  0.50400000000E-02 0. -1.
         -1   -1    0    0    0  501 -0.00000000000E+00 -0.00000000000E+00 -0.60308565075E+01  0.60308586135E+01  0.50400000000E-02 0.  1.
         23    2    1    2    0    0  0.00000000000E+00 -0.88817841970E-15  0.34008563860E+03  0.35214735376E+03  0.91375692482E+02 0.  0.
    9000005    2    3    3    0    0 -0.39050400307E+02 -0.50686015774E+01  0.25648078082E+03  0.25973308683E+03  0.11325236509E+02 0.  0.
         22    1    3    3    0    0  0.39050400307E+02  0.50686015774E+01  0.83604857785E+02  0.92414266926E+02  0.00000000000E+00 0.  1.
         22    1    4    4    0    0 -0.19169812620E+02  0.30515033388E+01  0.11329525555E+03  0.11494611050E+03  0.00000000000E+00 0. -1.
         22    1    4    4    0    0 -0.19880587687E+02 -0.81201049163E+01  0.14318552527E+03  0.14478697634E+03  0.00000000000E+00 0. -1.
<mgrwt>
<rscale>  0 0.91375692E+02</rscale>
<asrwt>0</asrwt>
<pdfrwt beam="1">  1        1 0.53248694E-01 0.91375692E+02</pdfrwt>
<pdfrwt beam="2">  1       -1 0.92782421E-03 0.91375692E+02</pdfrwt>
<totfact> 0.13080865E+05</totfact>
</mgrwt>
</event>
<event>
 7    1  0.3565607E-009  0.9205632E+02  0.7818608E-02  0.1297947E+00
          1   -1    0    0  501    0  0.00000000000E+00  0.00000000000E+00  0.12772376173E+03  0.12772376183E+03  0.50400000000E-02 0. -1.
         -1   -1    0    0    0  501 -0.00000000000E+00 -0.00000000000E+00 -0.16587292210E+02  0.16587292975E+02  0.50400000000E-02 0.  1.
         23    2    1    2    0    0  0.00000000000E+00  0.00000000000E+00  0.11113646952E+03  0.14431105480E+03  0.92056317987E+02 0.  0.
    9000005    2    3    3    0    0  0.16190745594E+02 -0.37792996638E+02  0.87680664819E+02  0.96975807768E+02  0.50948475266E+01 0.  0.
         22    1    3    3    0    0 -0.16190745594E+02  0.37792996638E+02  0.23455804697E+02  0.47335247034E+02  0.00000000000E+00 0.  1.
         22    1    4    4    0    0  0.30346947505E+01 -0.46035198131E+01  0.15430821173E+02  0.16386336045E+02  0.00000000000E+00 0.  1.
         22    1    4    4    0    0  0.13156050843E+02 -0.33189476825E+02  0.72249843646E+02  0.80589471723E+02  0.00000000000E+00 0.  1.
<mgrwt>
<rscale>  0 0.92056318E+02</rscale>
<asrwt>0</asrwt>
<pdfrwt beam="1">  1        1 0.19649809E-01 0.92056318E+02</pdfrwt>
<pdfrwt beam="2">  1       -1 0.25518912E-02 0.92056318E+02</pdfrwt>
<totfact> 0.10612606E+05</totfact>
</mgrwt>
</event>
<event>
 7    1  0.3565607E-009  0.9338308E+02  0.7818608E-02  0.1294860E+00
          1   -1    0    0  501    0  0.00000000000E+00  0.00000000000E+00  0.15395416518E+02  0.15395417343E+02  0.50400000000E-02 0. -1.
         -1   -1    0    0    0  501 -0.00000000000E+00 -0.00000000000E+00 -0.14160706462E+03  0.14160706471E+03  0.50400000000E-02 0.  1.
         23    2    1    2    0    0  0.00000000000E+00  0.00000000000E+00 -0.12621164811E+03  0.15700248206E+03  0.93383077985E+02 0.  0.
    9000005    2    3    3    0    0  0.22422989516E+02  0.38240633525E+02 -0.41559954763E+02  0.61445976798E+02  0.91236896913E+01 0.  0.
         22    1    3    3    0    0 -0.22422989516E+02 -0.38240633525E+02 -0.84651693342E+02  0.95556505257E+02  0.00000000000E+00 0.  1.
         22    1    4    4    0    0  0.20637900614E+01  0.20697443311E+01 -0.32937439187E+00  0.29413531756E+01  0.00000000000E+00 0. -1.
         22    1    4    4    0    0  0.20359199455E+02  0.36170889194E+02 -0.41230580371E+02  0.58504623622E+02  0.00000000000E+00 0. -1.
<mgrwt>
<rscale>  0 0.93383078E+02</rscale>
<asrwt>0</asrwt>
<pdfrwt beam="1">  1        1 0.23685258E-02 0.93383078E+02</pdfrwt>
<pdfrwt beam="2">  1       -1 0.21785701E-01 0.93383078E+02</pdfrwt>
<totfact> 0.71222958E+04</totfact>
</mgrwt>
</event>
<event>
 7    1  0.3565607E-009  0.9289607E+02  0.7818608E-02  0.1295986E+00
         -1   -1    0    0    0  501 -0.00000000000E+00  0.00000000000E+00  0.17364204550E+03  0.17364204557E+03  0.50400000000E-02 0.  1.
          1   -1    0    0  501    0  0.00000000000E+00 -0.00000000000E+00 -0.12424524936E+02  0.12424525958E+02  0.50400000000E-02 0. -1.
         23    2    1    2    0    0  0.00000000000E+00  0.00000000000E+00  0.16121752057E+03  0.18606657153E+03  0.92896071524E+02 0.  0.
    9000005    2    3    3    0    0 -0.31554909768E+02 -0.10787384564E+02  0.14460916453E+03  0.14881180692E+03  0.11002882204E+02 0.  0.
         22    1    3    3    0    0  0.31554909768E+02  0.10787384564E+02  0.16608356038E+02  0.37254764614E+02  0.00000000000E+00 0. -1.
         22    1    4    4    0    0 -0.61289099031E+01 -0.12640857149E+01  0.49797292875E+02  0.50188961206E+02  0.00000000000E+00 0.  1.
         22    1    4    4    0    0 -0.25425999865E+02 -0.95232988489E+01  0.94811871652E+02  0.98622845712E+02  0.00000000000E+00 0.  1.
<mgrwt>
<rscale>  0 0.92896072E+02</rscale>
<asrwt>0</asrwt>
<pdfrwt beam="2">  1        1 0.19114655E-02 0.92896072E+02</pdfrwt>
<pdfrwt beam="1">  1       -1 0.26714161E-01 0.92896072E+02</pdfrwt>
<totfact> 0.68719449E+04</totfact>
</mgrwt>
</event>
<event>
 6    1  0.3565607E-009  0.4996423E+02  0.7818608E-02  0.1445535E+00
          1   -1    0    0  501    0  0.00000000000E+00  0.00000000000E+00  0.38355909472E+03  0.38355909475E+03  0.50400000000E-02 0. -1.
         -1   -1    0    0    0  501 -0.00000000000E+00 -0.00000000000E+00 -0.16271403553E+01  0.16271481609E+01  0.50400000000E-02 0.  1.
    9000005    2    1    2    0    0 -0.89180231697E+01  0.11345062684E+02  0.34660789091E+03  0.34702826808E+03  0.91294698743E+01 0.  0.
         22    1    1    2    0    0  0.89180231697E+01 -0.11345062684E+02  0.35324063452E+02  0.38157974832E+02  0.00000000000E+00 0.  1.
         22    1    3    3    0    0 -0.58725482752E+01  0.89118936018E+01  0.14892458359E+03  0.14930653123E+03  0.00000000000E+00 0. -1.
         22    1    3    3    0    0 -0.30454748945E+01  0.24331690821E+01  0.19768330732E+03  0.19772173685E+03  0.00000000000E+00 0. -1.
<mgrwt>
<rscale>  0 0.49964227E+02</rscale>
<asrwt>0</asrwt>
<pdfrwt beam="1">  1        1 0.59009055E-01 0.49964227E+02</pdfrwt>
<pdfrwt beam="2">  1       -1 0.25033005E-03 0.49964227E+02</pdfrwt>
<totfact> 0.62984963E+05</totfact>
</mgrwt>
</event>
<event>
 7    1  0.3565607E-009  0.8840329E+02  0.7818608E-02  0.1306765E+00
          1   -1    0    0  501    0  0.00000000000E+00  0.00000000000E+00  0.26802814695E+03  0.26802814700E+03  0.50400000000E-02 0. -1.
         -1   -1    0    0    0  501 -0.00000000000E+00 -0.00000000000E+00 -0.72894781669E+01  0.72894799093E+01  0.50400000000E-02 0.  1.
         23    2    1    2    0    0 -0.17763568394E-14  0.00000000000E+00  0.26073866878E+03  0.27531762691E+03  0.88403293416E+02 0.  0.
    9000005    2    3    3    0    0 -0.11202782286E+02  0.38718110384E+02  0.79616801939E+02  0.89765140931E+02  0.97134428872E+01 0.  0.
         22    1    3    3    0    0  0.11202782286E+02 -0.38718110384E+02  0.18112186684E+03  0.18555248598E+03  0.00000000000E+00 0. -1.
         22    1    4    4    0    0  0.76318196156E+00  0.15078332490E+00  0.46114069660E+00  0.90434122961E+00  0.00000000000E+00 0.  1.
         22    1    4    4    0    0 -0.11965964247E+02  0.38567327059E+02  0.79155661243E+02  0.88860799702E+02  0.00000000000E+00 0.  1.
<mgrwt>
<rscale>  0 0.88403293E+02</rscale>
<asrwt>0</asrwt>
<pdfrwt beam="1">  1        1 0.41235093E-01 0.88403293E+02</pdfrwt>
<pdfrwt beam="2">  1       -1 0.11214585E-02 0.88403293E+02</pdfrwt>
<totfact> 0.13611144E+05</totfact>
</mgrwt>
</event>
<event>
 7    1  0.3565607E-009  0.9417169E+02  0.7818608E-02  0.1293053E+00
          1   -1    0    0  501    0  0.00000000000E+00  0.00000000000E+00  0.24203691561E+03  0.24203691566E+03  0.50400000000E-02 0. -1.
         -1   -1    0    0    0  501 -0.00000000000E+00 -0.00000000000E+00 -0.91600756545E+01  0.91600770410E+01  0.50400000000E-02 0.  1.
         23    2    1    2    0    0  0.00000000000E+00  0.00000000000E+00  0.23287683995E+03  0.25119699270E+03  0.94171686592E+02 0.  0.
    9000005    2    3    3    0    0 -0.19947791291E+02  0.13781996953E+02  0.22378911236E+03  0.22530404752E+03  0.96171305802E+01 0.  0.
         22    1    3    3    0    0  0.19947791291E+02 -0.13781996953E+02  0.90877275945E+01  0.25892945182E+02  0.00000000000E+00 0.  1.
         22    1    4    4    0    0 -0.75286597444E+01  0.57454378490E+01  0.50180589700E+02  0.51066450398E+02  0.00000000000E+00 0. -1.
         22    1    4    4    0    0 -0.12419131546E+02  0.80365591042E+01  0.17360852266E+03  0.17423759712E+03  0.00000000000E+00 0. -1.
<mgrwt>
<rscale>  0 0.94171687E+02</rscale>
<asrwt>0</asrwt>
<pdfrwt beam="1">  1        1 0.37236441E-01 0.94171687E+02</pdfrwt>
<pdfrwt beam="2">  1       -1 0.14092428E-02 0.94171687E+02</pdfrwt>
<totfact> 0.11269859E+05</totfact>
</mgrwt>
</event>
<event>
 7    1  0.3565607E-009  0.9114768E+02  0.7818608E-02  0.1300096E+00
         -1   -1    0    0    0  501 -0.00000000000E+00  0.00000000000E+00  0.92556666695E+01  0.92556680417E+01  0.50400000000E-02 0.  1.
          1   -1    0    0  501    0  0.00000000000E+00 -0.00000000000E+00 -0.22440033242E+03  0.22440033248E+03  0.50400000000E-02 0. -1.
         23    2    1    2    0    0  0.00000000000E+00 -0.17763568394E-14 -0.21514466575E+03  0.23365600052E+03  0.91147678946E+02 0.  0.
    9000005    2    3    3    0    0  0.14245014809E+01 -0.13122957923E+02 -0.21911771999E+03  0.21987099456E+03  0.12507510018E+02 0.  0.
         22    1    3    3    0    0 -0.14245014809E+01  0.13122957923E+02  0.39730542428E+01  0.13785005953E+02  0.00000000000E+00 0.  1.
         22    1    4    4    0    0 -0.17986570511E+01 -0.11964886259E+02 -0.20449168438E+03  0.20484931694E+03  0.00000000000E+00 0.  1.
         22    1    4    4    0    0  0.32231585320E+01 -0.11580716636E+01 -0.14626035617E+02  0.15021677629E+02  0.00000000000E+00 0.  1.
<mgrwt>
<rscale>  0 0.91147679E+02</rscale>
<asrwt>0</asrwt>
<pdfrwt beam="2">  1        1 0.34523124E-01 0.91147679E+02</pdfrwt>
<pdfrwt beam="1">  1       -1 0.14239490E-02 0.91147679E+02</pdfrwt>
<totfact> 0.12119438E+05</totfact>
</mgrwt>
</event>
<event>
 7    1  0.3565607E-009  0.9277296E+02  0.7818608E-02  0.1296272E+00
         -1   -1    0    0    0  501 -0.00000000000E+00  0.00000000000E+00  0.24751478309E+02  0.24751478822E+02  0.50400000000E-02 0.  1.
          1   -1    0    0  501    0  0.00000000000E+00 -0.00000000000E+00 -0.86932394032E+02  0.86932394178E+02  0.50400000000E-02 0. -1.
         23    2    1    2    0    0  0.00000000000E+00 -0.22204460493E-15 -0.62180915723E+02  0.11168387300E+03  0.92772955154E+02 0.  0.
    9000005    2    3    3    0    0  0.36392698787E+02 -0.14519475413E+01  0.15716041875E+00  0.39485726114E+02  0.15249957073E+02 0.  0.
         22    1    3    3    0    0 -0.36392698787E+02  0.14519475413E+01 -0.62338076142E+02  0.72198146886E+02  0.00000000000E+00 0. -1.
         22    1    4    4    0    0  0.16174642855E+02  0.56448213472E+01  0.42970817398E+01  0.17662049457E+02  0.00000000000E+00 0. -1.
         22    1    4    4    0    0  0.20218055931E+02 -0.70967688886E+01 -0.41399213211E+01  0.21823676657E+02  0.00000000000E+00 0. -1.
<mgrwt>
<rscale>  0 0.92772955E+02</rscale>
<asrwt>0</asrwt>
<pdfrwt beam="2">  1        1 0.13374214E-01 0.92772955E+02</pdfrwt>
<pdfrwt beam="1">  1       -1 0.38079198E-02 0.92772955E+02</pdfrwt>
<totfact> 0.97340761E+04</totfact>
</mgrwt>
</event>
<event>
 7    1  0.3565607E-009  0.8950919E+02  0.7818608E-02  0.1304045E+00
          1   -1    0    0  501    0  0.00000000000E+00  0.00000000000E+00  0.24242563766E+03  0.24242563772E+03  0.50400000000E-02 0. -1.
         -1   -1    0    0    0  501 -0.00000000000E+00 -0.00000000000E+00 -0.82622185737E+01  0.82622201109E+01  0.50400000000E-02 0.  1.
         23    2    1    2    0    0  0.00000000000E+00  0.00000000000E+00  0.23416341909E+03  0.25068785783E+03  0.89509190712E+02 0.  0.
    9000005    2    3    3    0    0  0.83270397481E+01  0.25224297627E+02  0.21762677488E+03  0.21939783732E+03  0.82700116709E+01 0.  0.
         22    1    3    3    0    0 -0.83270397481E+01 -0.25224297627E+02  0.16536644208E+02  0.31290020508E+02  0.00000000000E+00 0.  1.
         22    1    4    4    0    0  0.75775106964E+01  0.21308107223E+02  0.20232812900E+03  0.20358812806E+03  0.00000000000E+00 0.  1.
         22    1    4    4    0    0  0.74952905168E+00  0.39161904034E+01  0.15298645880E+02  0.15809709258E+02  0.00000000000E+00 0.  1.
<mgrwt>
<rscale>  0 0.89509191E+02</rscale>
<asrwt>0</asrwt>
<pdfrwt beam="1">  1        1 0.37296253E-01 0.89509191E+02</pdfrwt>
<pdfrwt beam="2">  1       -1 0.12711106E-02 0.89509191E+02</pdfrwt>
<totfact> 0.12913807E+05</totfact>
</mgrwt>
</event>
<event>
 7    1  0.3565607E-009  0.9224180E+02  0.7818608E-02  0.1297512E+00
          1   -1    0    0  501    0  0.00000000000E+00  0.00000000000E+00  0.12568710336E+02  0.12568711346E+02  0.50400000000E-02 0. -1.
         -1   -1    0    0    0  501 -0.00000000000E+00 -0.00000000000E+00 -0.16924068767E+03  0.16924068774E+03  0.50400000000E-02 0.  1.
         23    2    1    2    0    0  0.00000000000E+00  0.00000000000E+00 -0.15667197733E+03  0.18180939909E+03  0.92241797011E+02 0.  0.
    9000005    2    3    3    0    0  0.42019953926E+02 -0.16366293494E+02 -0.96505117118E+02  0.10661908616E+03  0.45672543690E+01 0.  0.
         22    1    3    3    0    0 -0.42019953926E+02  0.16366293494E+02 -0.60166860213E+02  0.75190312930E+02  0.00000000000E+00 0.  1.
         22    1    4    4    0    0  0.37772070317E+02 -0.14576461820E+02 -0.82985261582E+02  0.92335021390E+02  0.00000000000E+00 0. -1.
         22    1    4    4    0    0  0.42478836084E+01 -0.17898316735E+01 -0.13519855536E+02  0.14284064768E+02  0.00000000000E+00 0. -1.
<mgrwt>
<rscale>  0 0.92241797E+02</rscale>
<asrwt>0</asrwt>
<pdfrwt beam="1">  1        1 0.19336479E-02 0.92241797E+02</pdfrwt>
<pdfrwt beam="2">  1       -1 0.26037027E-01 0.92241797E+02</pdfrwt>
<totfact> 0.70458670E+04</totfact>
</mgrwt>
</event>
<event>
 7    1  0.3565607E-009  0.8810146E+02  0.7818608E-02  0.1307516E+00
          1   -1    0    0  501    0  0.00000000000E+00  0.00000000000E+00  0.92818408412E+02  0.92818408549E+02  0.50400000000E-02 0. -1.
         -1   -1    0    0    0  501 -0.00000000000E+00 -0.00000000000E+00 -0.20906055740E+02  0.20906056348E+02  0.50400000000E-02 0.  1.
         23    2    1    2    0    0  0.88817841970E-15 -0.35527136788E-14  0.71912352672E+02  0.11372446490E+03  0.88101461107E+02 0.  0.
    9000005    2    3    3    0    0  0.18178921557E+01 -0.19573443656E+02 -0.11944381262E+02  0.27594468644E+02  0.15243425716E+02 0.  0.
         22    1    3    3    0    0 -0.18178921557E+01  0.19573443656E+02  0.83856733934E+02  0.86129996253E+02  0.00000000000E+00 0. -1.
         22    1    4    4    0    0  0.61780293961E+01 -0.16279458040E+02 -0.38576375475E+01  0.17834521826E+02  0.00000000000E+00 0.  1.
         22    1    4    4    0    0 -0.43601372403E+01 -0.32939856157E+01 -0.80867437143E+01  0.97599468181E+01  0.00000000000E+00 0.  1.
<mgrwt>
<rscale>  0 0.88101461E+02</rscale>
<asrwt>0</asrwt>
<pdfrwt beam="1">  1        1 0.14279755E-01 0.88101461E+02</pdfrwt>
<pdfrwt beam="2">  1       -1 0.32163163E-02 0.88101461E+02</pdfrwt>
<totfact> 0.11328398E+05</totfact>
</mgrwt>
</event>
<event>
 7    1  0.3565607E-009  0.8978863E+02  0.7818608E-02  0.1303364E+00
          1   -1    0    0  501    0  0.00000000000E+00  0.00000000000E+00  0.33834615654E+03  0.33834615658E+03  0.50400000000E-02 0. -1.
         -1   -1    0    0    0  501 -0.00000000000E+00 -0.00000000000E+00 -0.59569149958E+01  0.59569171279E+01  0.50400000000E-02 0.  1.
         23    2    1    2    0    0 -0.17763568394E-14  0.00000000000E+00  0.33238924154E+03  0.34430307371E+03  0.89788633293E+02 0.  0.
    9000005    2    3    3    0    0 -0.14508592903E+02  0.29821178133E+02  0.28072985215E+03  0.28291500934E+03  0.11482625653E+02 0.  0.
         22    1    3    3    0    0  0.14508592903E+02 -0.29821178133E+02  0.51659389398E+02  0.61388064363E+02  0.00000000000E+00 0.  1.
         22    1    4    4    0    0 -0.88349720124E+01  0.27495106454E+02  0.22371474137E+03  0.22557110435E+03  0.00000000000E+00 0.  1.
         22    1    4    4    0    0 -0.56736208910E+01  0.23260716787E+01  0.57015110773E+02  0.57343904994E+02  0.00000000000E+00 0.  1.
<mgrwt>
<rscale>  0 0.89788633E+02</rscale>
<asrwt>0</asrwt>
<pdfrwt beam="1">  1        1 0.52053259E-01 0.89788633E+02</pdfrwt>
<pdfrwt beam="2">  1       -1 0.91644855E-03 0.89788633E+02</pdfrwt>
<totfact> 0.13648210E+05</totfact>
</mgrwt>
</event>
<event>
 7    1  0.3565607E-009  0.8824086E+02  0.7818608E-02  0.1307168E+00
          1   -1    0    0  501    0  0.00000000000E+00  0.00000000000E+00  0.11119263397E+02  0.11119264539E+02  0.50400000000E-02 0. -1.
         -1   -1    0    0    0  501 -0.00000000000E+00 -0.00000000000E+00 -0.17506665784E+03  0.17506665792E+03  0.50400000000E-02 0.  1.
         23    2    1    2    0    0  0.00000000000E+00  0.00000000000E+00 -0.16394739445E+03  0.18618592245E+03  0.88240861141E+02 0.  0.
    9000005    2    3    3    0    0  0.29640424825E+02  0.12719844055E+02 -0.22591844117E+02  0.41197161424E+02  0.12102292021E+02 0.  0.
         22    1    3    3    0    0 -0.29640424825E+02 -0.12719844055E+02 -0.14135555033E+03  0.14498876103E+03  0.00000000000E+00 0.  1.
         22    1    4    4    0    0  0.16865984293E+02  0.12032704590E+01 -0.14096655228E+02  0.22014199385E+02  0.00000000000E+00 0.  1.
         22    1    4    4    0    0  0.12774440532E+02  0.11516573596E+02 -0.84951888894E+01  0.19182962039E+02  0.00000000000E+00 0.  1.
<mgrwt>
<rscale>  0 0.88240861E+02</rscale>
<asrwt>0</asrwt>
<pdfrwt beam="1">  1        1 0.17106561E-02 0.88240861E+02</pdfrwt>
<pdfrwt beam="2">  1       -1 0.26933330E-01 0.88240861E+02</pdfrwt>
<totfact> 0.78379344E+04</totfact>
</mgrwt>
</event>
<event>
 7    1  0.3565607E-009  0.9186413E+02  0.7818608E-02  0.1298399E+00
          1   -1    0    0  501    0  0.00000000000E+00  0.00000000000E+00  0.30281552336E+03  0.30281552340E+03  0.50400000000E-02 0. -1.
         -1   -1    0    0    0  501 -0.00000000000E+00 -0.00000000000E+00 -0.69671279611E+01  0.69671297841E+01  0.50400000000E-02 0.  1.
         23    2    1    2    0    0  0.00000000000E+00  0.00000000000E+00  0.29584839540E+03  0.30978265318E+03  0.91864134213E+02 0.  0.
    9000005    2    3    3    0    0 -0.25536160756E+02  0.35688255503E+02  0.12516572273E+03  0.13354893951E+03  0.15592113723E+02 0.  0.
         22    1    3    3    0    0  0.25536160756E+02 -0.35688255503E+02  0.17068267266E+03  0.17623371367E+03  0.00000000000E+00 0. -1.
         22    1    4    4    0    0 -0.23163481432E+02  0.29364768774E+02  0.11761414759E+03  0.12341768200E+03  0.00000000000E+00 0.  1.
         22    1    4    4    0    0 -0.23726793247E+01  0.63234867298E+01  0.75515751412E+01  0.10131257509E+02  0.00000000000E+00 0.  1.
<mgrwt>
<rscale>  0 0.91864134E+02</rscale>
<asrwt>0</asrwt>
<pdfrwt beam="1">  1        1 0.46587001E-01 0.91864134E+02</pdfrwt>
<pdfrwt beam="2">  1       -1 0.10718660E-02 0.91864134E+02</pdfrwt>
<totfact> 0.12580493E+05</totfact>
</mgrwt>
</event>
<event>
 7    1  0.3565607E-009  0.6540945E+02  0.7818608E-02  0.1376438E+00
         -1   -1    0    0    0  501 -0.00000000000E+00  0.00000000000E+00  0.59539487398E+01  0.59539508729E+01  0.50400000000E-02 0.  1.
          1   -1    0    0  501    0  0.00000000000E+00 -0.00000000000E+00 -0.17964529460E+03  0.17964529467E+03  0.50400000000E-02 0. -1.
         23    2    1    2    0    0  0.00000000000E+00 -0.17763568394E-14 -0.17369134586E+03  0.18559924554E+03  0.65409451302E+02 0.  0.
    9000005    2    3    3    0    0  0.26982998020E+02 -0.14405237046E+02 -0.77772852460E+02  0.84921788222E+02  0.15083119657E+02 0.  0.
         22    1    3    3    0    0 -0.26982998020E+02  0.14405237046E+02 -0.95918493401E+02  0.10067745732E+03  0.00000000000E+00 0. -1.
         22    1    4    4    0    0  0.27397482851E+02 -0.11324373468E+02 -0.75376330901E+02  0.80996634258E+02  0.00000000000E+00 0. -1.
         22    1    4    4    0    0 -0.41448483098E+00 -0.30808635780E+01 -0.23965215594E+01  0.39251539646E+01  0.00000000000E+00 0. -1.
<mgrwt>
<rscale>  0 0.65409451E+02</rscale>
<asrwt>0</asrwt>
<pdfrwt beam="2">  1        1 0.27637734E-01 0.65409451E+02</pdfrwt>
<pdfrwt beam="1">  1       -1 0.91599242E-03 0.65409451E+02</pdfrwt>
<totfact> 0.27840473E+05</totfact>
</mgrwt>
</event>
<event>
 7    1  0.3565607E-009  0.9121401E+02  0.7818608E-02  0.1299938E+00
         -1   -1    0    0    0  501 -0.00000000000E+00  0.00000000000E+00  0.19739927510E+03  0.19739927516E+03  0.50400000000E-02 0.  1.
          1   -1    0    0  501    0  0.00000000000E+00 -0.00000000000E+00 -0.10537013715E+02  0.10537014920E+02  0.50400000000E-02 0. -1.
         23    2    1    2    0    0  0.00000000000E+00 -0.71054273576E-14  0.18686226138E+03  0.20793629008E+03  0.91214012102E+02 0.  0.
    9000005    2    3    3    0    0  0.54684571970E+01 -0.43869560760E+02  0.11641120581E+03  0.12476301542E+03  0.77329680620E+01 0.  0.
         22    1    3    3    0    0 -0.54684571970E+01  0.43869560760E+02  0.70451055575E+02  0.83173274656E+02  0.00000000000E+00 0. -1.
         22    1    4    4    0    0 -0.62736965854E+00 -0.85510065570E+00  0.10494538092E+01  0.14920265137E+01  0.00000000000E+00 0.  1.
         22    1    4    4    0    0  0.60958268556E+01 -0.43014460104E+02  0.11536175200E+03  0.12327098891E+03  0.00000000000E+00 0.  1.
<mgrwt>
<rscale>  0 0.91214012E+02</rscale>
<asrwt>0</asrwt>
<pdfrwt beam="2">  1        1 0.16210792E-02 0.91214012E+02</pdfrwt>
<pdfrwt beam="1">  1       -1 0.30369117E-01 0.91214012E+02</pdfrwt>
<totfact> 0.69609762E+04</totfact>
</mgrwt>
</event>
<event>
 7    1  0.3565607E-009  0.9139414E+02  0.7818608E-02  0.1299510E+00
          1   -1    0    0  501    0  0.00000000000E+00  0.00000000000E+00  0.72988061967E+02  0.72988062141E+02  0.50400000000E-02 0. -1.
         -1   -1    0    0    0  501 -0.00000000000E+00 -0.00000000000E+00 -0.28610460036E+02  0.28610460480E+02  0.50400000000E-02 0.  1.
         23    2    1    2    0    0 -0.35527136788E-14  0.00000000000E+00  0.44377601931E+02  0.10159852262E+03  0.91394136823E+02 0.  0.
    9000005    2    3    3    0    0  0.27953116394E+02  0.22434074957E+02  0.52371543341E+02  0.64875675039E+02  0.13468861291E+02 0.  0.
         22    1    3    3    0    0 -0.27953116394E+02 -0.22434074957E+02 -0.79939414095E+01  0.36722847583E+02  0.00000000000E+00 0.  1.
         22    1    4    4    0    0  0.31678473939E+01  0.29222220317E+01  0.16747561008E+02  0.17293219435E+02  0.00000000000E+00 0. -1.
         22    1    4    4    0    0  0.24785269000E+02  0.19511852926E+02  0.35623982333E+02  0.47582455603E+02  0.00000000000E+00 0. -1.
<mgrwt>
<rscale>  0 0.91394137E+02</rscale>
<asrwt>0</asrwt>
<pdfrwt beam="1">  1        1 0.11228932E-01 0.91394137E+02</pdfrwt>
<pdfrwt beam="2">  1       -1 0.44016094E-02 0.91394137E+02</pdfrwt>
<totfact> 0.98658148E+04</totfact>
</mgrwt>
</event>
<event>
 7    1  0.3565607E-009  0.9105910E+02  0.7818608E-02  0.1300307E+00
         -1   -1    0    0    0  501 -0.00000000000E+00  0.00000000000E+00  0.19349332223E+02  0.19349332880E+02  0.50400000000E-02 0.  1.
          1   -1    0    0  501    0  0.00000000000E+00 -0.00000000000E+00 -0.10713238089E+03  0.10713238101E+03  0.50400000000E-02 0. -1.
         23    2    1    2    0    0  0.00000000000E+00  0.00000000000E+00 -0.87783048671E+02  0.12648171389E+03  0.91059103418E+02 0.  0.
    9000005    2    3    3    0    0 -0.34533035546E+01 -0.33552556267E+02 -0.85232895408E+02  0.92655649694E+02  0.13517530217E+02 0.  0.
         22    1    3    3    0    0  0.34533035546E+01  0.33552556267E+02 -0.25501532625E+01  0.33826064198E+02  0.00000000000E+00 0.  1.
         22    1    4    4    0    0 -0.12655430260E+01 -0.24323841758E+02 -0.74257185116E+02  0.78149730764E+02  0.00000000000E+00 0.  1.
         22    1    4    4    0    0 -0.21877605286E+01 -0.92287145090E+01 -0.10975710292E+02  0.14505918931E+02  0.00000000000E+00 0.  1.
<mgrwt>
<rscale>  0 0.91059103E+02</rscale>
<asrwt>0</asrwt>
<pdfrwt beam="2">  1        1 0.16481904E-01 0.91059103E+02</pdfrwt>
<pdfrwt beam="1">  1       -1 0.29768205E-02 0.91059103E+02</pdfrwt>
<totfact> 0.10603774E+05</totfact>
</mgrwt>
</event>
<event>
 7    1  0.3565607E-009  0.9342242E+02  0.7818608E-02  0.1294769E+00
         -1   -1    0    0    0  501 -0.00000000000E+00  0.00000000000E+00  0.12174848989E+03  0.12174849000E+03  0.50400000000E-02 0.  1.
          1   -1    0    0  501    0  0.00000000000E+00 -0.00000000000E+00 -0.17921676405E+02  0.17921677113E+02  0.50400000000E-02 0. -1.
         23    2    1    2    0    0  0.00000000000E+00 -0.17763568394E-14  0.10382681349E+03  0.13967016711E+03  0.93422419053E+02 0.  0.
    9000005    2    3    3    0    0 -0.49926800025E+01 -0.13038304508E+02  0.11824813115E+03  0.11959783190E+03  0.11229275844E+02 0.  0.
         22    1    3    3    0    0  0.49926800025E+01  0.13038304508E+02 -0.14421317658E+02  0.20072335217E+02  0.00000000000E+00 0. -1.
         22    1    4    4    0    0 -0.38357438044E+01 -0.13825590899E+02  0.11639341706E+03  0.11727441080E+03  0.00000000000E+00 0.  1.
         22    1    4    4    0    0 -0.11569361981E+01  0.78728639008E+00  0.18547140900E+01  0.23234210944E+01  0.00000000000E+00 0.  1.
<mgrwt>
<rscale>  0 0.93422419E+02</rscale>
<asrwt>0</asrwt>
<pdfrwt beam="2">  1        1 0.27571811E-02 0.93422419E+02</pdfrwt>
<pdfrwt beam="1">  1       -1 0.18730537E-01 0.93422419E+02</pdfrwt>
<totfact> 0.73516854E+04</totfact>
</mgrwt>
</event>
<event>
 7    1  0.3565607E-009  0.9188100E+02  0.7818608E-02  0.1298359E+00
          1   -1    0    0  501    0  0.00000000000E+00  0.00000000000E+00  0.38390303538E+03  0.38390303541E+03  0.50400000000E-02 0. -1.
         -1   -1    0    0    0  501 -0.00000000000E+00 -0.00000000000E+00 -0.54975579614E+01  0.54975602717E+01  0.50400000000E-02 0.  1.
         23    2    1    2    0    0  0.00000000000E+00 -0.35527136788E-14  0.37840547742E+03  0.38940059568E+03  0.91881002276E+02 0.  0.
    9000005    2    3    3    0    0  0.38201834713E+02  0.20700652857E+02  0.24746048358E+03  0.25143506152E+03  0.97468983291E+01 0.  0.
         22    1    3    3    0    0 -0.38201834713E+02 -0.20700652857E+02  0.13094499384E+03  0.13796553416E+03  0.00000000000E+00 0.  1.
         22    1    4    4    0    0  0.10591110924E+02  0.10983916337E+02  0.84082612033E+02  0.85455858166E+02  0.00000000000E+00 0. -1.
         22    1    4    4    0    0  0.27610723789E+02  0.97167365200E+01  0.16337787155E+03  0.16597920336E+03  0.00000000000E+00 0. -1.
<mgrwt>
<rscale>  0 0.91881002E+02</rscale>
<asrwt>0</asrwt>
<pdfrwt beam="1">  1        1 0.59062022E-01 0.91881002E+02</pdfrwt>
<pdfrwt beam="2">  1       -1 0.84577810E-03 0.91881002E+02</pdfrwt>
<totfact> 0.13125838E+05</totfact>
</mgrwt>
</event>
<event>
 7    1  0.3565607E-009  0.8957030E+02  0.7818608E-02  0.1303896E+00
          1   -1    0    0  501    0  0.00000000000E+00  0.00000000000E+00  0.64325030550E+02  0.64325030748E+02  0.50400000000E-02 0. -1.
         -1   -1    0    0    0  501 -0.00000000000E+00 -0.00000000000E+00 -0.31180856461E+02  0.31180856869E+02  0.50400000000E-02 0.  1.
         23    2    1    2    0    0  0.17763568394E-14  0.00000000000E+00  0.33144174089E+02  0.95505887616E+02  0.89570298053E+02 0.  0.
    9000005    2    3    3    0    0 -0.15835355513E+02 -0.33748492165E+02 -0.66152169027E+01  0.41003333734E+02  0.15741444503E+02 0.  0.
         22    1    3    3    0    0  0.15835355513E+02  0.33748492165E+02  0.39759390992E+02  0.54502553882E+02  0.00000000000E+00 0. -1.
         22    1    4    4    0    0 -0.72735943887E+01 -0.23779233999E+02 -0.10942684304E+02  0.27167986394E+02  0.00000000000E+00 0.  1.
         22    1    4    4    0    0 -0.85617611243E+01 -0.99692581659E+01  0.43274674013E+01  0.13835347341E+02  0.00000000000E+00 0.  1.
<mgrwt>
<rscale>  0 0.89570298E+02</rscale>
<asrwt>0</asrwt>
<pdfrwt beam="1">  1        1 0.98961587E-02 0.89570298E+02</pdfrwt>
<pdfrwt beam="2">  1       -1 0.47970548E-02 0.89570298E+02</pdfrwt>
<totfact> 0.10229455E+05</totfact>
</mgrwt>
</event>
<event>
 7    1  0.4012366E-009  0.9163903E+02  0.7818608E-02  0.1298930E+00
         -1   -1    0    0    0  501 -0.00000000000E+00  0.00000000000E+00  0.81713325187E+02  0.81713325342E+02  0.50400000000E-02 0. -1.
          1   -1    0    0  501    0  0.00000000000E+00 -0.00000000000E+00 -0.25692602100E+02  0.25692602594E+02  0.50400000000E-02 0.  1.
         23    2    1    2    0    0  0.00000000000E+00  0.00000000000E+00  0.56020723087E+02  0.10740592794E+03  0.91639030662E+02 0.  0.
    9000005    2    3    3    0    0  0.15716893020E+02 -0.27288764518E+02 -0.86967642945E+01  0.35433359772E+02  0.13718304576E+02 0.  0.
         22    1    3    3    0    0 -0.15716893020E+02  0.27288764518E+02  0.64717487382E+02  0.71972568164E+02  0.00000000000E+00 0. -1.
         22    1    4    4    0    0  0.14707682947E+02 -0.12563113901E+02 -0.28249406053E+01  0.19548096019E+02  0.00000000000E+00 0. -1.
         22    1    4    4    0    0  0.10092100732E+01 -0.14725650617E+02 -0.58718236892E+01  0.15885263753E+02  0.00000000000E+00 0. -1.
<mgrwt>
<rscale>  0 0.91639031E+02</rscale>
<asrwt>0</asrwt>
<pdfrwt beam="2">  1        1 0.39527080E-02 0.91639031E+02</pdfrwt>
<pdfrwt beam="1">  1       -1 0.12571281E-01 0.91639031E+02</pdfrwt>
<totfact> 0.83260103E+04</totfact>
</mgrwt>
</event>
<event>
 6    1  0.4165300E-009  0.2291624E+03  0.7818608E-02  0.1127231E+00
          1   -1    0    0  501    0  0.00000000000E+00  0.00000000000E+00  0.26684835194E+03  0.26684835199E+03  0.50400000000E-02 0. -1.
         -1   -1    0    0    0  501 -0.00000000000E+00 -0.00000000000E+00 -0.49199670006E+02  0.49199670264E+02  0.50400000000E-02 0.  1.
    9000005    2    1    2    0    0 -0.30346977548E+02  0.32443470461E+02 -0.36378883681E+02  0.58165254479E+02  0.92874016210E+01 0.  0.
         22    1    1    2    0    0  0.30346977548E+02 -0.32443470461E+02  0.25402756562E+03  0.25788276777E+03  0.00000000000E+00 0. -1.
         22    1    3    3    0    0 -0.15891787533E+02  0.23338177703E+02 -0.21134948976E+02  0.35269044752E+02  0.00000000000E+00 0. -1.
         22    1    3    3    0    0 -0.14455190015E+02  0.91052927582E+01 -0.15243934705E+02  0.22896209727E+02  0.00000000000E+00 0. -1.
<mgrwt>
<rscale>  0 0.22916240E+03</rscale>
<asrwt>0</asrwt>
<pdfrwt beam="1">  1        1 0.41053592E-01 0.22916240E+03</pdfrwt>
<pdfrwt beam="2">  1       -1 0.75691802E-02 0.22916240E+03</pdfrwt>
<totfact> 0.93465157E+03</totfact>
</mgrwt>
</event>
<event>
 7    1  0.3565607E-009  0.9092072E+02  0.7818608E-02  0.1300637E+00
         -1   -1    0    0    0  501 -0.00000000000E+00  0.00000000000E+00  0.31384583376E+02  0.31384583781E+02  0.50400000000E-02 0.  1.
          1   -1    0    0  501    0  0.00000000000E+00 -0.00000000000E+00 -0.65849027732E+02  0.65849027925E+02  0.50400000000E-02 0. -1.
         23    2    1    2    0    0  0.00000000000E+00  0.00000000000E+00 -0.34464444356E+02  0.97233611706E+02  0.90920719974E+02 0.  0.
    9000005    2    3    3    0    0  0.81341430568E+01 -0.42449751433E+02 -0.82724633724E+01  0.46694858775E+02  0.15615073031E+02 0.  0.
         22    1    3    3    0    0 -0.81341430568E+01  0.42449751433E+02 -0.26191980984E+02  0.50538752931E+02  0.00000000000E+00 0. -1.
         22    1    4    4    0    0 -0.37087339805E+01 -0.62395437025E+01 -0.41848639528E+01  0.83785261029E+01  0.00000000000E+00 0. -1.
         22    1    4    4    0    0  0.11842877037E+02 -0.36210207731E+02 -0.40875994195E+01  0.38316332672E+02  0.00000000000E+00 0. -1.
<mgrwt>
<rscale>  0 0.90920720E+02</rscale>
<asrwt>0</asrwt>
<pdfrwt beam="2">  1        1 0.10130620E-01 0.90920720E+02</pdfrwt>
<pdfrwt beam="1">  1       -1 0.48283975E-02 0.90920720E+02</pdfrwt>
<totfact> 0.98507482E+04</totfact>
</mgrwt>
</event>
<event>
 7    1  0.3565607E-009  0.9119516E+02  0.7818608E-02  0.1299983E+00
          1   -1    0    0  501    0  0.00000000000E+00  0.00000000000E+00  0.88775989420E+03  0.88775989421E+03  0.50400000000E-02 0. -1.
         -1   -1    0    0    0  501 -0.00000000000E+00 -0.00000000000E+00 -0.23420035433E+01  0.23420089664E+01  0.50400000000E-02 0.  1.
         23    2    1    2    0    0  0.00000000000E+00  0.00000000000E+00  0.88541789065E+03  0.89010190318E+03  0.91195158593E+02 0.  0.
    9000005    2    3    3    0    0  0.25652209817E+02 -0.27695565553E+02  0.68872064666E+03  0.68981489408E+03  0.91311957001E+01 0.  0.
         22    1    3    3    0    0 -0.25652209817E+02  0.27695565553E+02  0.19669724399E+03  0.20028700910E+03  0.00000000000E+00 0.  1.
         22    1    4    4    0    0  0.23359196502E+02 -0.27048639210E+02  0.60085221217E+03  0.60191416483E+03  0.00000000000E+00 0.  1.
         22    1    4    4    0    0  0.22930133151E+01 -0.64692634244E+00  0.87868434489E+02  0.87900729253E+02  0.00000000000E+00 0.  1.
<mgrwt>
<rscale>  0 0.91195159E+02</rscale>
<asrwt>0</asrwt>
<pdfrwt beam="1">  1        1 0.13657824E+00 0.91195159E+02</pdfrwt>
<pdfrwt beam="2">  1       -1 0.36030921E-03 0.91195159E+02</pdfrwt>
<totfact> 0.13942196E+05</totfact>
</mgrwt>
</event>
<event>
 7    1  0.6194601E-009  0.9175751E+02  0.7818608E-02  0.1298651E+00
         -1   -1    0    0    0  501 -0.00000000000E+00  0.00000000000E+00  0.50812531803E+01  0.50812556798E+01  0.50400000000E-02 0.  1.
          1   -1    0    0  501    0  0.00000000000E+00 -0.00000000000E+00 -0.41424028561E+03  0.41424028564E+03  0.50400000000E-02 0. -1.
         23    2    1    2    0    0  0.00000000000E+00  0.00000000000E+00 -0.40915903243E+03  0.41932154132E+03  0.91757513025E+02 0.  0.
    9000005    2    3    3    0    0 -0.16443460185E+02 -0.85523335471E+01 -0.39583896462E+03  0.39649712461E+03  0.13339944359E+02 0.  0.
         22    1    3    3    0    0  0.16443460185E+02  0.85523335471E+01 -0.13320067807E+02  0.22824416714E+02  0.00000000000E+00 0.  1.
         22    1    4    4    0    0 -0.14131062029E+02 -0.10317942438E+02 -0.24243766577E+03  0.24306823864E+03  0.00000000000E+00 0.  1.
         22    1    4    4    0    0 -0.23123981560E+01  0.17656088913E+01 -0.15340129885E+03  0.15342888597E+03  0.00000000000E+00 0.  1.
<mgrwt>
<rscale>  0 0.91757513E+02</rscale>
<asrwt>0</asrwt>
<pdfrwt beam="2">  1        1 0.63729248E-01 0.91757513E+02</pdfrwt>
<pdfrwt beam="1">  1       -1 0.78173178E-03 0.91757513E+02</pdfrwt>
<totfact> 0.13338486E+05</totfact>
</mgrwt>
</event>
<event>
 7    1  0.4308723E-009  0.9205767E+02  0.7818608E-02  0.1297944E+00
          1   -1    0    0  501    0  0.00000000000E+00  0.00000000000E+00  0.24873356475E+03  0.24873356480E+03  0.50400000000E-02 0. -1.
         -1   -1    0    0    0  501 -0.00000000000E+00 -0.00000000000E+00 -0.85177621089E+01  0.85177636000E+01  0.50400000000E-02 0.  1.
         23    2    1    2    0    0  0.35527136788E-14  0.00000000000E+00  0.24021580264E+03  0.25725132840E+03  0.92057667391E+02 0.  0.
    9000005    2    3    3    0    0  0.20646235745E+02 -0.28136053339E+02  0.20167297570E+03  0.20525657812E+03  0.15503844256E+02 0.  0.
         22    1    3    3    0    0 -0.20646235745E+02  0.28136053339E+02  0.38542826940E+02  0.51994750278E+02  0.00000000000E+00 0.  1.
         22    1    4    4    0    0  0.34486593954E+01  0.10703300148E+01  0.10531712696E+02  0.11133545270E+02  0.00000000000E+00 0.  1.
         22    1    4    4    0    0  0.17197576350E+02 -0.29206383354E+02  0.19114126300E+03  0.19412303285E+03  0.00000000000E+00 0.  1.
<mgrwt>
<rscale>  0 0.92057667E+02</rscale>
<asrwt>0</asrwt>
<pdfrwt beam="1">  1        1 0.38266696E-01 0.92057667E+02</pdfrwt>
<pdfrwt beam="2">  1       -1 0.13104253E-02 0.92057667E+02</pdfrwt>
<totfact> 0.12041088E+05</totfact>
</mgrwt>
</event>
<event>
 7    1  0.3565607E-009  0.9245632E+02  0.7818608E-02  0.1297010E+00
         -1   -1    0    0    0  501 -0.00000000000E+00  0.00000000000E+00  0.22757023948E+02  0.22757024506E+02  0.50400000000E-02 0.  1.
          1   -1    0    0  501    0  0.00000000000E+00 -0.00000000000E+00 -0.93906953759E+02  0.93906953894E+02  0.50400000000E-02 0. -1.
         23    2    1    2    0    0  0.00000000000E+00 -0.35527136788E-14 -0.71149929811E+02  0.11666397840E+03  0.92456321277E+02 0.  0.
    9000005    2    3    3    0    0 -0.40127713718E+02 -0.20113663708E+02 -0.45223587633E+02  0.64828005421E+02  0.11945900238E+02 0.  0.
         22    1    3    3    0    0  0.40127713718E+02  0.20113663708E+02 -0.25926342178E+02  0.51835972979E+02  0.00000000000E+00 0. -1.
         22    1    4    4    0    0 -0.11301032573E+02 -0.89545607256E+01 -0.81652421593E+01  0.16570113896E+02  0.00000000000E+00 0.  1.
         22    1    4    4    0    0 -0.28826681145E+02 -0.11159102983E+02 -0.37058345474E+02  0.48257891525E+02  0.00000000000E+00 0.  1.
<mgrwt>
<rscale>  0 0.92456321E+02</rscale>
<asrwt>0</asrwt>
<pdfrwt beam="2">  1        1 0.14447224E-01 0.92456321E+02</pdfrwt>
<pdfrwt beam="1">  1       -1 0.35010807E-02 0.92456321E+02</pdfrwt>
<totfact> 0.99506458E+04</totfact>
</mgrwt>
</event>
<event>
 7    1  0.3565607E-009  0.9269368E+02  0.7818608E-02  0.1296457E+00
         -1   -1    0    0    0  501 -0.00000000000E+00  0.00000000000E+00  0.36689287750E+02  0.36689288096E+02  0.50400000000E-02 0.  1.
          1   -1    0    0  501    0  0.00000000000E+00 -0.00000000000E+00 -0.58546506696E+02  0.58546506913E+02  0.50400000000E-02 0. -1.
         23    2    1    2    0    0  0.11102230246E-15  0.00000000000E+00 -0.21857218946E+02  0.95235795009E+02  0.92693681720E+02 0.  0.
    9000005    2    3    3    0    0  0.91035868697E+00 -0.45012827740E+02 -0.14298801822E+02  0.49583707613E+02  0.15070000431E+02 0.  0.
         22    1    3    3    0    0 -0.91035868697E+00  0.45012827740E+02 -0.75584171234E+01  0.45652087395E+02  0.00000000000E+00 0. -1.
         22    1    4    4    0    0  0.77329585326E+01 -0.23242101140E+02 -0.94822726755E+01  0.26266088559E+02  0.00000000000E+00 0.  1.
         22    1    4    4    0    0 -0.68225998457E+01 -0.21770726600E+02 -0.48165291467E+01  0.23317619055E+02  0.00000000000E+00 0.  1.
<mgrwt>
<rscale>  0 0.92693682E+02</rscale>
<asrwt>0</asrwt>
<pdfrwt beam="2">  1        1 0.90071549E-02 0.92693682E+02</pdfrwt>
<pdfrwt beam="1">  1       -1 0.56445058E-02 0.92693682E+02</pdfrwt>
<totfact> 0.91706148E+04</totfact>
</mgrwt>
</event>
<event>
 7    1  0.3565607E-009  0.9234427E+02  0.7818608E-02  0.1297272E+00
         -1   -1    0    0    0  501 -0.00000000000E+00  0.00000000000E+00  0.60422082292E+01  0.60422103312E+01  0.50400000000E-02 0.  1.
          1   -1    0    0  501    0  0.00000000000E+00 -0.00000000000E+00 -0.35282887487E+03  0.35282887491E+03  0.50400000000E-02 0. -1.
         23    2    1    2    0    0  0.00000000000E+00  0.00000000000E+00 -0.34678666664E+03  0.35887108524E+03  0.92344267063E+02 0.  0.
    9000005    2    3    3    0    0  0.42556927886E+02 -0.11290291266E+02 -0.22371214139E+03  0.22815803480E+03  0.83907003392E+01 0.  0.
         22    1    3    3    0    0 -0.42556927886E+02  0.11290291266E+02 -0.12307452525E+03  0.13071305043E+03  0.00000000000E+00 0. -1.
         22    1    4    4    0    0  0.28086221479E+02 -0.96800564715E+01 -0.13236354005E+03  0.13565635283E+03  0.00000000000E+00 0. -1.
         22    1    4    4    0    0  0.14470706406E+02 -0.16102347945E+01 -0.91348601343E+02  0.92501681970E+02  0.00000000000E+00 0. -1.
<mgrwt>
<rscale>  0 0.92344267E+02</rscale>
<asrwt>0</asrwt>
<pdfrwt beam="2">  1        1 0.54281349E-01 0.92344267E+02</pdfrwt>
<pdfrwt beam="1">  1       -1 0.92957094E-03 0.92344267E+02</pdfrwt>
<totfact> 0.12762513E+05</totfact>
</mgrwt>
</event>
<event>
 7    1  0.3565607E-009  0.9671906E+02  0.7818608E-02  0.1287351E+00
         -1   -1    0    0    0  501 -0.00000000000E+00  0.00000000000E+00  0.17960894744E+02  0.17960895451E+02  0.50400000000E-02 0.  1.
          1   -1    0    0  501    0  0.00000000000E+00 -0.00000000000E+00 -0.13020755698E+03  0.13020755708E+03  0.50400000000E-02 0. -1.
         23    2    1    2    0    0  0.00000000000E+00  0.00000000000E+00 -0.11224666224E+03  0.14816845253E+03  0.96719062971E+02 0.  0.
    9000005    2    3    3    0    0 -0.17233014381E+02  0.25162716348E+02  0.12290583605E+01  0.30665779183E+02  0.29564082565E+01 0.  0.
         22    1    3    3    0    0  0.17233014381E+02 -0.25162716348E+02 -0.11347572060E+03  0.11750267335E+03  0.00000000000E+00 0. -1.
         22    1    4    4    0    0 -0.12077523311E+02  0.15747703433E+02 -0.12776614567E+00  0.19846235334E+02  0.00000000000E+00 0. -1.
         22    1    4    4    0    0 -0.51554910704E+01  0.94150129145E+01  0.13568245062E+01  0.10819543849E+02  0.00000000000E+00 0. -1.
<mgrwt>
<rscale>  0 0.96719063E+02</rscale>
<asrwt>0</asrwt>
<pdfrwt beam="2">  1        1 0.20031931E-01 0.96719063E+02</pdfrwt>
<pdfrwt beam="1">  1       -1 0.27632147E-02 0.96719063E+02</pdfrwt>
<totfact> 0.93099710E+04</totfact>
</mgrwt>
</event>
<event>
 7    1  0.3565607E-009  0.9340885E+02  0.7818608E-02  0.1294800E+00
          1   -1    0    0  501    0  0.00000000000E+00  0.00000000000E+00  0.52088447500E+03  0.52088447502E+03  0.50400000000E-02 0. -1.
         -1   -1    0    0    0  501 -0.00000000000E+00 -0.00000000000E+00 -0.41876896475E+01  0.41876926804E+01  0.50400000000E-02 0.  1.
         23    2    1    2    0    0  0.00000000000E+00 -0.35527136788E-14  0.51669678535E+03  0.52507216770E+03  0.93408850248E+02 0.  0.
    9000005    2    3    3    0    0 -0.97882599426E+01  0.18174851654E+02  0.49300705103E+03  0.49365022032E+03  0.14437880307E+02 0.  0.
         22    1    3    3    0    0  0.97882599426E+01 -0.18174851654E+02  0.23689734319E+02  0.31421947385E+02  0.00000000000E+00 0.  1.
         22    1    4    4    0    0 -0.92795160198E+01  0.26609668975E+01  0.18074786491E+03  0.18100547183E+03  0.00000000000E+00 0. -1.
         22    1    4    4    0    0 -0.50874392283E+00  0.15513884757E+02  0.31225918612E+03  0.31264474849E+03  0.00000000000E+00 0. -1.
<mgrwt>
<rscale>  0 0.93408850E+02</rscale>
<asrwt>0</asrwt>
<pdfrwt beam="1">  1        1 0.80136098E-01 0.93408850E+02</pdfrwt>
<pdfrwt beam="2">  1       -1 0.64425999E-03 0.93408850E+02</pdfrwt>
<totfact> 0.13121220E+05</totfact>
</mgrwt>
</event>
<event>
 7    1  0.3565607E-009  0.9106111E+02  0.7818608E-02  0.1300302E+00
          1   -1    0    0  501    0  0.00000000000E+00  0.00000000000E+00  0.48140071698E+03  0.48140071700E+03  0.50400000000E-02 0. -1.
         -1   -1    0    0    0  501 -0.00000000000E+00 -0.00000000000E+00 -0.43062472074E+01  0.43062501568E+01  0.50400000000E-02 0.  1.
         23    2    1    2    0    0  0.00000000000E+00 -0.35527136788E-14  0.47709446977E+03  0.48570696716E+03  0.91061105107E+02 0.  0.
    9000005    2    3    3    0    0 -0.17740266825E+02  0.27514557173E+02  0.40716978163E+03  0.40849796552E+03  0.34042377500E+01 0.  0.
         22    1    3    3    0    0  0.17740266825E+02 -0.27514557173E+02  0.69924688136E+02  0.77209001640E+02  0.00000000000E+00 0. -1.
         22    1    4    4    0    0 -0.97387737312E+01  0.17615304054E+02  0.26103745234E+03  0.26181232625E+03  0.00000000000E+00 0. -1.
         22    1    4    4    0    0 -0.80014930936E+01  0.98992531184E+01  0.14613232929E+03  0.14668563927E+03  0.00000000000E+00 0. -1.
<mgrwt>
<rscale>  0 0.91061105E+02</rscale>
<asrwt>0</asrwt>
<pdfrwt beam="1">  1        1 0.74061605E-01 0.91061105E+02</pdfrwt>
<pdfrwt beam="2">  1       -1 0.66250020E-03 0.91061105E+02</pdfrwt>
<totfact> 0.13908550E+05</totfact>
</mgrwt>
</event>
<event>
 7    1  0.3565607E-009  0.9015745E+02  0.7818608E-02  0.1302471E+00
         -1   -1    0    0    0  501 -0.00000000000E+00  0.00000000000E+00  0.19195243627E+03  0.19195243634E+03  0.50400000000E-02 0.  1.
          1   -1    0    0  501    0  0.00000000000E+00 -0.00000000000E+00 -0.10586432129E+02  0.10586433329E+02  0.50400000000E-02 0. -1.
         23    2    1    2    0    0  0.00000000000E+00  0.00000000000E+00  0.18136600414E+03  0.20253886967E+03  0.90157452644E+02 0.  0.
    9000005    2    3    3    0    0  0.28885420441E+02  0.18231349596E+02  0.15666330934E+03  0.16038471503E+03  0.36214226196E+01 0.  0.
         22    1    3    3    0    0 -0.28885420441E+02 -0.18231349596E+02  0.24702694805E+02  0.42154154633E+02  0.00000000000E+00 0. -1.
         22    1    4    4    0    0  0.20237045521E+02  0.11487608632E+02  0.11234005935E+03  0.11472485389E+03  0.00000000000E+00 0. -1.
         22    1    4    4    0    0  0.86483749201E+01  0.67437409645E+01  0.44323249983E+02  0.45659861147E+02  0.00000000000E+00 0. -1.
<mgrwt>
<rscale>  0 0.90157453E+02</rscale>
<asrwt>0</asrwt>
<pdfrwt beam="2">  1        1 0.16286821E-02 0.90157453E+02</pdfrwt>
<pdfrwt beam="1">  1       -1 0.29531141E-01 0.90157453E+02</pdfrwt>
<totfact> 0.72317665E+04</totfact>
</mgrwt>
</event>
<event>
 6    1  0.3565607E-009  0.1367156E+03  0.7818608E-02  0.1217818E+00
          1   -1    0    0  501    0  0.00000000000E+00  0.00000000000E+00  0.17481122856E+03  0.17481122864E+03  0.50400000000E-02 0. -1.
         -1   -1    0    0    0  501 -0.00000000000E+00 -0.00000000000E+00 -0.26730479779E+02  0.26730480254E+02  0.50400000000E-02 0.  1.
    9000005    2    1    2    0    0 -0.35604159417E+02 -0.32764480649E+02  0.46560871697E+01  0.50175263073E+02  0.12438268238E+02 0.  0.
         22    1    1    2    0    0  0.35604159417E+02  0.32764480649E+02  0.14342466162E+03  0.15136644582E+03  0.00000000000E+00 0. -1.
         22    1    3    3    0    0 -0.34714890169E+02 -0.28074254754E+02  0.19521854738E+01  0.44688906986E+02  0.00000000000E+00 0.  1.
         22    1    3    3    0    0 -0.88926924796E+00 -0.46902258950E+01  0.27039016959E+01  0.54863560878E+01  0.00000000000E+00 0.  1.
<mgrwt>
<rscale>  0 0.13671559E+03</rscale>
<asrwt>0</asrwt>
<pdfrwt beam="1">  1        1 0.26894036E-01 0.13671559E+03</pdfrwt>
<pdfrwt beam="2">  1       -1 0.41123815E-02 0.13671559E+03</pdfrwt>
<totfact> 0.37781105E+04</totfact>
</mgrwt>
</event>
<event>
 7    1  0.3565607E-009  0.9183729E+02  0.7818608E-02  0.1298462E+00
          1   -1    0    0  501    0  0.00000000000E+00  0.00000000000E+00  0.72387940442E+02  0.72387940618E+02  0.50400000000E-02 0. -1.
         -1   -1    0    0    0  501 -0.00000000000E+00 -0.00000000000E+00 -0.29128081561E+02  0.29128081997E+02  0.50400000000E-02 0.  1.
         23    2    1    2    0    0  0.00000000000E+00  0.00000000000E+00  0.43259858881E+02  0.10151602262E+03  0.91837287946E+02 0.  0.
    9000005    2    3    3    0    0 -0.43591084048E+02 -0.12917559701E+02  0.20361208201E+02  0.50610284628E+02  0.89317497468E+01 0.  0.
         22    1    3    3    0    0  0.43591084048E+02  0.12917559701E+02  0.22898650679E+02  0.50905737988E+02  0.00000000000E+00 0. -1.
         22    1    4    4    0    0 -0.26272694710E+02 -0.99761420632E+01  0.16620717455E+02  0.32650055842E+02  0.00000000000E+00 0. -1.
         22    1    4    4    0    0 -0.17318389339E+02 -0.29414176375E+01  0.37404907462E+01  0.17960228785E+02  0.00000000000E+00 0. -1.
<mgrwt>
<rscale>  0 0.91837288E+02</rscale>
<asrwt>0</asrwt>
<pdfrwt beam="1">  1        1 0.11136606E-01 0.91837288E+02</pdfrwt>
<pdfrwt beam="2">  1       -1 0.44812434E-02 0.91837288E+02</pdfrwt>
<totfact> 0.97225254E+04</totfact>
</mgrwt>
</event>
<event>
 7    1  0.3565607E-009  0.9104991E+02  0.7818608E-02  0.1300329E+00
          1   -1    0    0  501    0  0.00000000000E+00  0.00000000000E+00  0.17645848977E+02  0.17645849697E+02  0.50400000000E-02 0. -1.
         -1   -1    0    0    0  501 -0.00000000000E+00 -0.00000000000E+00 -0.11745092694E+03  0.11745092705E+03  0.50400000000E-02 0.  1.
         23    2    1    2    0    0  0.35527136788E-14 -0.11102230246E-15 -0.99805077965E+02  0.13509677675E+03  0.91049906643E+02 0.  0.
    9000005    2    3    3    0    0  0.21798251088E+02 -0.32765714830E+00 -0.10884903188E+03  0.11149456897E+03  0.10375743784E+02 0.  0.
         22    1    3    3    0    0 -0.21798251088E+02  0.32765714830E+00  0.90439539117E+01  0.23602207779E+02  0.00000000000E+00 0. -1.
         22    1    4    4    0    0  0.22844456830E+02 -0.55602258762E+00 -0.99816863551E+02  0.10239914364E+03  0.00000000000E+00 0. -1.
         22    1    4    4    0    0 -0.10462057426E+01  0.22836543932E+00 -0.90321683251E+01  0.90954253272E+01  0.00000000000E+00 0. -1.
<mgrwt>
<rscale>  0 0.91049907E+02</rscale>
<asrwt>0</asrwt>
<pdfrwt beam="1">  1        1 0.27147461E-02 0.91049907E+02</pdfrwt>
<pdfrwt beam="2">  1       -1 0.18069373E-01 0.91049907E+02</pdfrwt>
<totfact> 0.79158949E+04</totfact>
</mgrwt>
</event>
<event>
 7    1  0.3565607E-009  0.8911450E+02  0.7818608E-02  0.1305010E+00
         -1   -1    0    0    0  501 -0.00000000000E+00  0.00000000000E+00  0.29729875808E+02  0.29729876235E+02  0.50400000000E-02 0.  1.
          1   -1    0    0  501    0  0.00000000000E+00 -0.00000000000E+00 -0.66779574781E+02  0.66779574972E+02  0.50400000000E-02 0. -1.
         23    2    1    2    0    0  0.35527136788E-14  0.44408920985E-15 -0.37049698974E+02  0.96509451206E+02  0.89114499258E+02 0.  0.
    9000005    2    3    3    0    0  0.18119522191E+02  0.36457174263E+01  0.23766750255E+02  0.32946499443E+02  0.13379277556E+02 0.  0.
         22    1    3    3    0    0 -0.18119522191E+02 -0.36457174263E+01 -0.60816449229E+02  0.63562951763E+02  0.00000000000E+00 0. -1.
         22    1    4    4    0    0  0.74568662891E+01  0.42685022729E+01  0.19745221440E+02  0.21533665183E+02  0.00000000000E+00 0. -1.
         22    1    4    4    0    0  0.10662655902E+02 -0.62278484663E+00  0.40215288153E+01  0.11412834260E+02  0.00000000000E+00 0. -1.
<mgrwt>
<rscale>  0 0.89114499E+02</rscale>
<asrwt>0</asrwt>
<pdfrwt beam="2">  1        1 0.10273781E-01 0.89114499E+02</pdfrwt>
<pdfrwt beam="1">  1       -1 0.45738271E-02 0.89114499E+02</pdfrwt>
<totfact> 0.10432949E+05</totfact>
</mgrwt>
</event>
<event>
 7    1  0.3565607E-009  0.9208539E+02  0.7818608E-02  0.1297879E+00
         -1   -1    0    0    0  501 -0.00000000000E+00  0.00000000000E+00  0.37269793353E+02  0.37269793693E+02  0.50400000000E-02 0.  1.
          1   -1    0    0  501    0  0.00000000000E+00 -0.00000000000E+00 -0.56880636957E+02  0.56880637180E+02  0.50400000000E-02 0. -1.
         23    2    1    2    0    0  0.00000000000E+00  0.00000000000E+00 -0.19610843605E+02  0.94150430874E+02  0.92085386717E+02 0.  0.
    9000005    2    3    3    0    0  0.16709588648E+02 -0.32570202028E+02 -0.36534519592E+02  0.53821294733E+02  0.14897390105E+02 0.  0.
         22    1    3    3    0    0 -0.16709588648E+02  0.32570202028E+02  0.16923675988E+02  0.40329136141E+02  0.00000000000E+00 0.  1.
         22    1    4    4    0    0  0.74452817125E+01 -0.17956295217E+02 -0.92849404046E+01  0.21542304334E+02  0.00000000000E+00 0.  1.
         22    1    4    4    0    0  0.92643069358E+01 -0.14613906811E+02 -0.27249579188E+02  0.32278990399E+02  0.00000000000E+00 0.  1.
<mgrwt>
<rscale>  0 0.92085387E+02</rscale>
<asrwt>0</asrwt>
<pdfrwt beam="2">  1        1 0.87508672E-02 0.92085387E+02</pdfrwt>
<pdfrwt beam="1">  1       -1 0.57338144E-02 0.92085387E+02</pdfrwt>
<totfact> 0.92994269E+04</totfact>
</mgrwt>
</event>
<event>
 7    1  0.3565607E-009  0.9118177E+02  0.7818608E-02  0.1300015E+00
         -1   -1    0    0    0  501 -0.00000000000E+00  0.00000000000E+00  0.42998606726E+02  0.42998607021E+02  0.50400000000E-02 0.  1.
          1   -1    0    0  501    0  0.00000000000E+00 -0.00000000000E+00 -0.48339440772E+02  0.48339441035E+02  0.50400000000E-02 0. -1.
         23    2    1    2    0    0  0.00000000000E+00  0.88817841970E-15 -0.53408340462E+01  0.91338048056E+02  0.91181766348E+02 0.  0.
    9000005    2    3    3    0    0  0.19605468018E+02 -0.75862737177E+01  0.36824539477E+02  0.44222820693E+02  0.12557278257E+02 0.  0.
         22    1    3    3    0    0 -0.19605468018E+02  0.75862737177E+01 -0.42165373523E+02  0.47115227363E+02  0.00000000000E+00 0. -1.
         22    1    4    4    0    0  0.39255368363E+01  0.35130835969E+01  0.74628669100E+01  0.91348770287E+01  0.00000000000E+00 0.  1.
         22    1    4    4    0    0  0.15679931182E+02 -0.11099357315E+02  0.29361672567E+02  0.35087943664E+02  0.00000000000E+00 0.  1.
<mgrwt>
<rscale>  0 0.91181766E+02</rscale>
<asrwt>0</asrwt>
<pdfrwt beam="2">  1        1 0.74368371E-02 0.91181766E+02</pdfrwt>
<pdfrwt beam="1">  1       -1 0.66151703E-02 0.91181766E+02</pdfrwt>
<totfact> 0.93275654E+04</totfact>
</mgrwt>
</event>
<event>
 6    1  0.4090591E-009  0.1822521E+03  0.7818608E-02  0.1165641E+00
         -1   -1    0    0    0  501 -0.00000000000E+00  0.00000000000E+00  0.10646033471E+02  0.10646034664E+02  0.50400000000E-02 0.  1.
          1   -1    0    0  501    0  0.00000000000E+00 -0.00000000000E+00 -0.78000483621E+03  0.78000483623E+03  0.50400000000E-02 0. -1.
    9000005    2    1    2    0    0 -0.15687791874E+02 -0.73760132623E+02 -0.60525391255E+03  0.61004888042E+03  0.11860601318E+02 0.  0.
         22    1    1    2    0    0  0.15687791874E+02  0.73760132623E+02 -0.16410489019E+03  0.18060199047E+03  0.00000000000E+00 0.  1.
         22    1    3    3    0    0 -0.41682984522E+01 -0.40173459704E+02 -0.35452829434E+03  0.35682151430E+03  0.00000000000E+00 0.  1.
         22    1    3    3    0    0 -0.11519493422E+02 -0.33586672918E+02 -0.25072561821E+03  0.25322736613E+03  0.00000000000E+00 0.  1.
<mgrwt>
<rscale>  0 0.18225211E+03</rscale>
<asrwt>0</asrwt>
<pdfrwt beam="2">  1        1 0.12000070E+00 0.18225211E+03</pdfrwt>
<pdfrwt beam="1">  1       -1 0.16378520E-02 0.18225211E+03</pdfrwt>
<totfact> 0.21348998E+04</totfact>
</mgrwt>
</event>
<event>
 7    1  0.3846397E-009  0.9068455E+02  0.7818608E-02  0.1301202E+00
         -1   -1    0    0    0  501 -0.00000000000E+00  0.00000000000E+00  0.42476497137E+01  0.42476527038E+01  0.50400000000E-02 0.  1.
          1   -1    0    0  501    0  0.00000000000E+00 -0.00000000000E+00 -0.48401382605E+03  0.48401382608E+03  0.50400000000E-02 0. -1.
         23    2    1    2    0    0  0.00000000000E+00  0.00000000000E+00 -0.47976617634E+03  0.48826147878E+03  0.90684550526E+02 0.  0.
    9000005    2    3    3    0    0 -0.70596655214E+01  0.36732362386E+02 -0.37250794789E+03  0.37466820040E+03  0.14662326755E+02 0.  0.
         22    1    3    3    0    0  0.70596655214E+01 -0.36732362386E+02 -0.10725822844E+03  0.11359327838E+03  0.00000000000E+00 0.  1.
         22    1    4    4    0    0  0.45343489072E+01  0.82228188808E+01 -0.83825405908E+02  0.84349711001E+02  0.00000000000E+00 0.  1.
         22    1    4    4    0    0 -0.11594014429E+02  0.28509543505E+02 -0.28868254199E+03  0.29031848940E+03  0.00000000000E+00 0.  1.
<mgrwt>
<rscale>  0 0.90684551E+02</rscale>
<asrwt>0</asrwt>
<pdfrwt beam="2">  1        1 0.74463622E-01 0.90684551E+02</pdfrwt>
<pdfrwt beam="1">  1       -1 0.65348519E-03 0.90684551E+02</pdfrwt>
<totfact> 0.14071719E+05</totfact>
</mgrwt>
</event>
<event>
 7    1  0.3565607E-009  0.9084105E+02  0.7818608E-02  0.1300828E+00
         -1   -1    0    0    0  501 -0.00000000000E+00  0.00000000000E+00  0.18732488958E+02  0.18732489636E+02  0.50400000000E-02 0.  1.
          1   -1    0    0  501    0  0.00000000000E+00 -0.00000000000E+00 -0.11013080905E+03  0.11013080917E+03  0.50400000000E-02 0. -1.
         23    2    1    2    0    0  0.00000000000E+00  0.88817841970E-15 -0.91398320094E+02  0.12886329880E+03  0.90841052737E+02 0.  0.
    9000005    2    3    3    0    0  0.43748446825E+02  0.66522216611E+01 -0.46913963349E+02  0.66117489001E+02  0.14574763876E+02 0.  0.
         22    1    3    3    0    0 -0.43748446825E+02 -0.66522216611E+01 -0.44484356744E+02  0.62745809801E+02  0.00000000000E+00 0.  1.
         22    1    4    4    0    0  0.13118367774E+00  0.22112680226E+01 -0.49742785846E+01  0.54452146755E+01  0.00000000000E+00 0. -1.
         22    1    4    4    0    0  0.43617263148E+02  0.44409536385E+01 -0.41939684765E+02  0.60672274326E+02  0.00000000000E+00 0. -1.
<mgrwt>
<rscale>  0 0.90841053E+02</rscale>
<asrwt>0</asrwt>
<pdfrwt beam="2">  1        1 0.16943201E-01 0.90841053E+02</pdfrwt>
<pdfrwt beam="1">  1       -1 0.28819215E-02 0.90841053E+02</pdfrwt>
<totfact> 0.10723091E+05</totfact>
</mgrwt>
</event>
<event>
 7    1  0.3565607E-009  0.9510156E+02  0.7818608E-02  0.1290948E+00
         -1   -1    0    0    0  501 -0.00000000000E+00  0.00000000000E+00  0.89008896342E+02  0.89008896485E+02  0.50400000000E-02 0.  1.
          1   -1    0    0  501    0  0.00000000000E+00 -0.00000000000E+00 -0.25402815788E+02  0.25402816288E+02  0.50400000000E-02 0. -1.
         23    2    1    2    0    0  0.71054273576E-14  0.88817841970E-15  0.63606080555E+02  0.11441171277E+03  0.95101559062E+02 0.  0.
    9000005    2    3    3    0    0  0.40684557083E+02  0.75442508741E+01  0.75538596173E+01  0.44741056264E+02  0.15249669315E+02 0.  0.
         22    1    3    3    0    0 -0.40684557083E+02 -0.75442508741E+01  0.56052220937E+02  0.69670656508E+02  0.00000000000E+00 0.  1.
         22    1    4    4    0    0  0.23460760534E+02  0.42215174109E+01 -0.33726345238E+01  0.24074948759E+02  0.00000000000E+00 0.  1.
         22    1    4    4    0    0  0.17223796549E+02  0.33227334632E+01  0.10926494141E+02  0.20666107506E+02  0.00000000000E+00 0.  1.
<mgrwt>
<rscale>  0 0.95101559E+02</rscale>
<asrwt>0</asrwt>
<pdfrwt beam="2">  1        1 0.39081256E-02 0.95101559E+02</pdfrwt>
<pdfrwt beam="1">  1       -1 0.13693676E-01 0.95101559E+02</pdfrwt>
<totfact> 0.74570165E+04</totfact>
</mgrwt>
</event>
<event>
 7    1  0.3565607E-009  0.8935804E+02  0.7818608E-02  0.1304414E+00
          1   -1    0    0  501    0  0.00000000000E+00  0.00000000000E+00  0.32312683920E+03  0.32312683924E+03  0.50400000000E-02 0. -1.
         -1   -1    0    0    0  501 -0.00000000000E+00 -0.00000000000E+00 -0.61778041875E+01  0.61778062434E+01  0.50400000000E-02 0.  1.
         23    2    1    2    0    0  0.00000000000E+00  0.00000000000E+00  0.31694903501E+03  0.32930464548E+03  0.89358036802E+02 0.  0.
    9000005    2    3    3    0    0  0.66211237401E+01  0.40588768586E+02  0.21965022084E+03  0.22367156992E+03  0.95636947554E+01 0.  0.
         22    1    3    3    0    0 -0.66211237401E+01 -0.40588768586E+02  0.97298814169E+02  0.10563307557E+03  0.00000000000E+00 0.  1.
         22    1    4    4    0    0  0.12056296511E+01  0.31494511217E+02  0.17145085356E+03  0.17432370168E+03  0.00000000000E+00 0.  1.
         22    1    4    4    0    0  0.54154940889E+01  0.90942573694E+01  0.48199367282E+02  0.49347868239E+02  0.00000000000E+00 0.  1.
<mgrwt>
<rscale>  0 0.89358037E+02</rscale>
<asrwt>0</asrwt>
<pdfrwt beam="1">  1        1 0.49711825E-01 0.89358037E+02</pdfrwt>
<pdfrwt beam="2">  1       -1 0.95043151E-03 0.89358037E+02</pdfrwt>
<totfact> 0.13707428E+05</totfact>
</mgrwt>
</event>
<event>
 7    1  0.3565607E-009  0.9043356E+02  0.7818608E-02  0.1301805E+00
          1   -1    0    0  501    0  0.00000000000E+00  0.00000000000E+00  0.21913777187E+03  0.21913777193E+03  0.50400000000E-02 0. -1.
         -1   -1    0    0    0  501 -0.00000000000E+00 -0.00000000000E+00 -0.93300071494E+01  0.93300085107E+01  0.50400000000E-02 0.  1.
         23    2    1    2    0    0  0.00000000000E+00  0.00000000000E+00  0.20980776472E+03  0.22846778044E+03  0.90433558824E+02 0.  0.
    9000005    2    3    3    0    0 -0.13522468362E+02 -0.10924497022E+02  0.21003002994E+03  0.21108240763E+03  0.11872975507E+02 0.  0.
         22    1    3    3    0    0  0.13522468362E+02  0.10924497022E+02 -0.22226522431E+00  0.17385372806E+02  0.00000000000E+00 0.  1.
         22    1    4    4    0    0 -0.76230500677E+01 -0.12545190047E+02  0.13227889617E+03  0.13309094281E+03  0.00000000000E+00 0.  1.
         22    1    4    4    0    0 -0.58994182945E+01  0.16206930254E+01  0.77751133771E+02  0.77991464820E+02  0.00000000000E+00 0.  1.
<mgrwt>
<rscale>  0 0.90433559E+02</rscale>
<asrwt>0</asrwt>
<pdfrwt beam="1">  1        1 0.33713502E-01 0.90433559E+02</pdfrwt>
<pdfrwt beam="2">  1       -1 0.14353859E-02 0.90433559E+02</pdfrwt>
<totfact> 0.12319925E+05</totfact>
</mgrwt>
</event>
<event>
 7    1  0.3565607E-009  0.9147420E+02  0.7818608E-02  0.1299320E+00
          1   -1    0    0  501    0  0.00000000000E+00  0.00000000000E+00  0.68509350686E+03  0.68509350688E+03  0.50400000000E-02 0. -1.
         -1   -1    0    0    0  501 -0.00000000000E+00 -0.00000000000E+00 -0.30534239121E+01  0.30534280716E+01  0.50400000000E-02 0.  1.
         23    2    1    2    0    0  0.17763568394E-14 -0.27755575616E-16  0.68204008295E+03  0.68814693495E+03  0.91474200372E+02 0.  0.
    9000005    2    3    3    0    0  0.13098199600E+02 -0.70587143089E-01  0.67045572331E+03  0.67066079176E+03  0.10171178714E+02 0.  0.
         22    1    3    3    0    0 -0.13098199600E+02  0.70587143089E-01  0.11584359641E+02  0.17486143188E+02  0.00000000000E+00 0.  1.
         22    1    4    4    0    0  0.14061524552E+02 -0.40976520543E+00  0.66107115402E+03  0.66122081415E+03  0.00000000000E+00 0. -1.
         22    1    4    4    0    0 -0.96332495201E+00  0.33917806234E+00  0.93845692836E+01  0.94399776144E+01  0.00000000000E+00 0. -1.
<mgrwt>
<rscale>  0 0.91474200E+02</rscale>
<asrwt>0</asrwt>
<pdfrwt beam="1">  1        1 0.10539899E+00 0.91474200E+02</pdfrwt>
<pdfrwt beam="2">  1       -1 0.46975791E-03 0.91474200E+02</pdfrwt>
<totfact> 0.14096688E+05</totfact>
</mgrwt>
</event>
<event>
 7    1  0.3565607E-009  0.9031708E+02  0.7818608E-02  0.1302086E+00
          1   -1    0    0  501    0  0.00000000000E+00  0.00000000000E+00  0.72074559032E+01  0.72074576654E+01  0.50400000000E-02 0. -1.
         -1   -1    0    0    0  501 -0.00000000000E+00 -0.00000000000E+00 -0.28294220258E+03  0.28294220262E+03  0.50400000000E-02 0.  1.
         23    2    1    2    0    0  0.00000000000E+00  0.00000000000E+00 -0.27573474668E+03  0.29014966029E+03  0.90317079457E+02 0.  0.
    9000005    2    3    3    0    0 -0.29309981083E+02 -0.25776678203E+02 -0.20604981016E+03  0.21027787235E+03  0.15386591765E+02 0.  0.
         22    1    3    3    0    0  0.29309981083E+02  0.25776678203E+02 -0.69684936521E+02  0.79871787936E+02  0.00000000000E+00 0. -1.
         22    1    4    4    0    0  0.21462713877E+00 -0.33275184789E+01 -0.64465772426E+01  0.72578786281E+01  0.00000000000E+00 0. -1.
         22    1    4    4    0    0 -0.29524608222E+02 -0.22449159724E+02 -0.19960323291E+03  0.20301999373E+03  0.00000000000E+00 0. -1.
<mgrwt>
<rscale>  0 0.90317079E+02</rscale>
<asrwt>0</asrwt>
<pdfrwt beam="1">  1        1 0.11088397E-02 0.90317079E+02</pdfrwt>
<pdfrwt beam="2">  1       -1 0.43529561E-01 0.90317079E+02</pdfrwt>
<totfact> 0.63517777E+04</totfact>
</mgrwt>
</event>
<event>
 7    1  0.3565607E-009  0.9142251E+02  0.7818608E-02  0.1299443E+00
          1   -1    0    0  501    0  0.00000000000E+00  0.00000000000E+00  0.10401886702E+02  0.10401887923E+02  0.50400000000E-02 0. -1.
         -1   -1    0    0    0  501 -0.00000000000E+00 -0.00000000000E+00 -0.20087879784E+03  0.20087879791E+03  0.50400000000E-02 0.  1.
         23    2    1    2    0    0  0.00000000000E+00 -0.35527136788E-14 -0.19047691114E+03  0.21128068583E+03  0.91422505582E+02 0.  0.
    9000005    2    3    3    0    0 -0.12417848693E+02  0.31903301733E+02 -0.32638040691E+02  0.49771761456E+02  0.15490736283E+02 0.  0.
         22    1    3    3    0    0  0.12417848693E+02 -0.31903301733E+02 -0.15783887045E+03  0.16150892437E+03  0.00000000000E+00 0.  1.
         22    1    4    4    0    0 -0.57789962646E+01  0.59145127960E+01 -0.16531251004E+02  0.18484061220E+02  0.00000000000E+00 0.  1.
         22    1    4    4    0    0 -0.66388524279E+01  0.25988788937E+02 -0.16106789687E+02  0.31287700235E+02  0.00000000000E+00 0.  1.
<mgrwt>
<rscale>  0 0.91422506E+02</rscale>
<asrwt>0</asrwt>
<pdfrwt beam="1">  1        1 0.16002905E-02 0.91422506E+02</pdfrwt>
<pdfrwt beam="2">  1       -1 0.30904428E-01 0.91422506E+02</pdfrwt>
<totfact> 0.68852549E+04</totfact>
</mgrwt>
</event>
<event>
 7    1  0.3565607E-009  0.7775450E+02  0.7818608E-02  0.1335547E+00
         -1   -1    0    0    0  501 -0.00000000000E+00  0.00000000000E+00  0.51831420349E+01  0.51831444853E+01  0.50400000000E-02 0.  1.
          1   -1    0    0  501    0  0.00000000000E+00 -0.00000000000E+00 -0.29160696203E+03  0.29160696208E+03  0.50400000000E-02 0. -1.
         23    2    1    2    0    0  0.44408920985E-15  0.00000000000E+00 -0.28642382000E+03  0.29679010656E+03  0.77754502704E+02 0.  0.
    9000005    2    3    3    0    0 -0.31922113204E+01  0.25899329715E+02 -0.25294666968E+03  0.25434384541E+03  0.52733765336E+01 0.  0.
         22    1    3    3    0    0  0.31922113204E+01 -0.25899329715E+02 -0.33477150316E+02  0.42446261155E+02  0.00000000000E+00 0.  1.
         22    1    4    4    0    0  0.74787601004E+00  0.67512930172E+01 -0.50336629817E+02  0.50792869354E+02  0.00000000000E+00 0.  1.
         22    1    4    4    0    0 -0.39400873305E+01  0.19148036698E+02 -0.20261003987E+03  0.20355097605E+03  0.00000000000E+00 0.  1.
<mgrwt>
<rscale>  0 0.77754503E+02</rscale>
<asrwt>0</asrwt>
<pdfrwt beam="2">  1        1 0.44862597E-01 0.77754503E+02</pdfrwt>
<pdfrwt beam="1">  1       -1 0.79740689E-03 0.77754503E+02</pdfrwt>
<totfact> 0.19410594E+05</totfact>
</mgrwt>
</event>
<event>
 7    1  0.3565607E-009  0.8838369E+02  0.7818608E-02  0.1306814E+00
         -1   -1    0    0    0  501 -0.00000000000E+00  0.00000000000E+00  0.23078841469E+02  0.23078842019E+02  0.50400000000E-02 0.  1.
          1   -1    0    0  501    0  0.00000000000E+00 -0.00000000000E+00 -0.84619455210E+02  0.84619455360E+02  0.50400000000E-02 0. -1.
         23    2    1    2    0    0  0.00000000000E+00  0.00000000000E+00 -0.61540613741E+02  0.10769829738E+03  0.88383686950E+02 0.  0.
    9000005    2    3    3    0    0 -0.34306748716E+02  0.23393585311E+02 -0.17448897222E+02  0.47131868503E+02  0.13882945408E+02 0.  0.
         22    1    3    3    0    0  0.34306748716E+02 -0.23393585311E+02 -0.44091716519E+02  0.60566428876E+02  0.00000000000E+00 0. -1.
         22    1    4    4    0    0 -0.35490710640E+02  0.23069185364E+02 -0.17696292570E+02  0.45879588335E+02  0.00000000000E+00 0.  1.
         22    1    4    4    0    0  0.11839619234E+01  0.32439994659E+00  0.24739534835E+00  0.12522801682E+01  0.00000000000E+00 0.  1.
<mgrwt>
<rscale>  0 0.88383687E+02</rscale>
<asrwt>0</asrwt>
<pdfrwt beam="2">  1        1 0.13018378E-01 0.88383687E+02</pdfrwt>
<pdfrwt beam="1">  1       -1 0.35505911E-02 0.88383687E+02</pdfrwt>
<totfact> 0.11066358E+05</totfact>
</mgrwt>
</event>
<event>
 7    1  0.3565607E-009  0.9168889E+02  0.7818608E-02  0.1298813E+00
          1   -1    0    0  501    0  0.00000000000E+00  0.00000000000E+00  0.55541308422E+01  0.55541331289E+01  0.50400000000E-02 0. -1.
         -1   -1    0    0    0  501 -0.00000000000E+00 -0.00000000000E+00 -0.37840535930E+03  0.37840535933E+03  0.50400000000E-02 0.  1.
         23    2    1    2    0    0  0.00000000000E+00  0.00000000000E+00 -0.37285122845E+03  0.38395949246E+03  0.91688894035E+02 0.  0.
    9000005    2    3    3    0    0 -0.35225079589E+02 -0.24602805143E+02 -0.13165778658E+03  0.13896891988E+03  0.11510155100E+02 0.  0.
         22    1    3    3    0    0  0.35225079589E+02  0.24602805143E+02 -0.24119344187E+03  0.24499057258E+03  0.00000000000E+00 0.  1.
         22    1    4    4    0    0 -0.23812540391E+02 -0.20240535985E+02 -0.10667189348E+03  0.11115578814E+03  0.00000000000E+00 0. -1.
         22    1    4    4    0    0 -0.11412539199E+02 -0.43622691586E+01 -0.24985893099E+02  0.27813131739E+02  0.00000000000E+00 0. -1.
<mgrwt>
<rscale>  0 0.91688894E+02</rscale>
<asrwt>0</asrwt>
<pdfrwt beam="1">  1        1 0.85448215E-03 0.91688894E+02</pdfrwt>
<pdfrwt beam="2">  1       -1 0.58216189E-01 0.91688894E+02</pdfrwt>
<totfact> 0.53970108E+04</totfact>
</mgrwt>
</event>
<event>
 7    1  0.3565607E-009  0.9074817E+02  0.7818608E-02  0.1301050E+00
          1   -1    0    0  501    0  0.00000000000E+00  0.00000000000E+00  0.94800705979E+02  0.94800706113E+02  0.50400000000E-02 0. -1.
         -1   -1    0    0    0  501 -0.00000000000E+00 -0.00000000000E+00 -0.21717216575E+02  0.21717217160E+02  0.50400000000E-02 0.  1.
         23    2    1    2    0    0 -0.35527136788E-14  0.00000000000E+00  0.73083489404E+02  0.11651792327E+03  0.90748168138E+02 0.  0.
    9000005    2    3    3    0    0 -0.29255355438E+02  0.22794074183E+02  0.36228822445E+01  0.37776437469E+02  0.62038949370E+01 0.  0.
         22    1    3    3    0    0  0.29255355438E+02 -0.22794074183E+02  0.69460607159E+02  0.78741485804E+02  0.00000000000E+00 0. -1.
         22    1    4    4    0    0 -0.18454275932E+02  0.10694781300E+02  0.30599214119E+01  0.21547662664E+02  0.00000000000E+00 0.  1.
         22    1    4    4    0    0 -0.10801079507E+02  0.12099292883E+02  0.56296083258E+00  0.16228774805E+02  0.00000000000E+00 0.  1.
<mgrwt>
<rscale>  0 0.90748168E+02</rscale>
<asrwt>0</asrwt>
<pdfrwt beam="1">  1        1 0.14584724E-01 0.90748168E+02</pdfrwt>
<pdfrwt beam="2">  1       -1 0.33411103E-02 0.90748168E+02</pdfrwt>
<totfact> 0.10487441E+05</totfact>
</mgrwt>
</event>
<event>
 7    1  0.3565607E-009  0.8944116E+02  0.7818608E-02  0.1304211E+00
         -1   -1    0    0    0  501 -0.00000000000E+00  0.00000000000E+00  0.27276396809E+03  0.27276396814E+03  0.50400000000E-02 0.  1.
          1   -1    0    0  501    0  0.00000000000E+00 -0.00000000000E+00 -0.73320902454E+01  0.73320919776E+01  0.50400000000E-02 0. -1.
         23    2    1    2    0    0  0.00000000000E+00  0.00000000000E+00  0.26543187785E+03  0.28009606012E+03  0.89441160074E+02 0.  0.
    9000005    2    3    3    0    0 -0.29733551181E+02  0.32250680796E+02  0.12253303247E+03  0.13061605982E+03  0.11046291674E+02 0.  0.
         22    1    3    3    0    0  0.29733551181E+02 -0.32250680796E+02  0.14289884538E+03  0.14948000030E+03  0.00000000000E+00 0. -1.
         22    1    4    4    0    0 -0.48834308181E+00  0.50556702864E+01  0.18389721094E+02  0.19078263100E+02  0.00000000000E+00 0.  1.
         22    1    4    4    0    0 -0.29245208099E+02  0.27195010510E+02  0.10414331137E+03  0.11153779672E+03  0.00000000000E+00 0.  1.
<mgrwt>
<rscale>  0 0.89441160E+02</rscale>
<asrwt>0</asrwt>
<pdfrwt beam="2">  1        1 0.11280139E-02 0.89441160E+02</pdfrwt>
<pdfrwt beam="1">  1       -1 0.41963692E-01 0.89441160E+02</pdfrwt>
<totfact> 0.66041651E+04</totfact>
</mgrwt>
</event>
<event>
 7    1  0.3565607E-009  0.9118426E+02  0.7818608E-02  0.1300009E+00
         -1   -1    0    0    0  501 -0.00000000000E+00  0.00000000000E+00  0.33934109834E+03  0.33934109837E+03  0.50400000000E-02 0.  1.
          1   -1    0    0  501    0  0.00000000000E+00 -0.00000000000E+00 -0.61255241931E+01  0.61255262666E+01  0.50400000000E-02 0. -1.
         23    2    1    2    0    0  0.17763568394E-14  0.00000000000E+00  0.33321557414E+03  0.34546662464E+03  0.91184263383E+02 0.  0.
    9000005    2    3    3    0    0  0.14799210478E+02  0.42246612492E+02  0.13793363030E+03  0.14511984905E+03  0.55037553522E+01 0.  0.
         22    1    3    3    0    0 -0.14799210478E+02 -0.42246612492E+02  0.19528194385E+03  0.20034677559E+03  0.00000000000E+00 0. -1.
         22    1    4    4    0    0 -0.35540917715E+00  0.52042911565E+00  0.11324072076E+01  0.12959584220E+01  0.00000000000E+00 0. -1.
         22    1    4    4    0    0  0.15154619655E+02  0.41726183377E+02  0.13680122309E+03  0.14382389063E+03  0.00000000000E+00 0. -1.
<mgrwt>
<rscale>  0 0.91184263E+02</rscale>
<asrwt>0</asrwt>
<pdfrwt beam="2">  1        1 0.94238854E-03 0.91184263E+02</pdfrwt>
<pdfrwt beam="1">  1       -1 0.52206321E-01 0.91184263E+02</pdfrwt>
<totfact> 0.57556826E+04</totfact>
</mgrwt>
</event>
<event>
 7    1  0.3565607E-009  0.8864922E+02  0.7818608E-02  0.1306156E+00
         -1   -1    0    0    0  501 -0.00000000000E+00  0.00000000000E+00  0.87502099137E+01  0.87502113652E+01  0.50400000000E-02 0.  1.
          1   -1    0    0  501    0  0.00000000000E+00 -0.00000000000E+00 -0.22452840275E+03  0.22452840281E+03  0.50400000000E-02 0. -1.
         23    2    1    2    0    0  0.17763568394E-14  0.00000000000E+00 -0.21577819284E+03  0.23327861417E+03  0.88649215034E+02 0.  0.
    9000005    2    3    3    0    0  0.15249033490E+02  0.46374685173E+01 -0.21636816816E+03  0.21732909357E+03  0.12755845030E+02 0.  0.
         22    1    3    3    0    0 -0.15249033490E+02 -0.46374685173E+01  0.58997532151E+00  0.15949520604E+02  0.00000000000E+00 0.  1.
         22    1    4    4    0    0  0.54876375366E+01  0.51126136942E+01 -0.15555006610E+03  0.15573078067E+03  0.00000000000E+00 0. -1.
         22    1    4    4    0    0  0.97613959529E+01 -0.47514517688E+00 -0.60818102060E+02  0.61598312899E+02  0.00000000000E+00 0. -1.
<mgrwt>
<rscale>  0 0.88649215E+02</rscale>
<asrwt>0</asrwt>
<pdfrwt beam="2">  1        1 0.34542827E-01 0.88649215E+02</pdfrwt>
<pdfrwt beam="1">  1       -1 0.13461864E-02 0.88649215E+02</pdfrwt>
<totfact> 0.13054651E+05</totfact>
</mgrwt>
</event>
<event>
 7    1  0.3565607E-009  0.9135914E+02  0.7818608E-02  0.1299593E+00
         -1   -1    0    0    0  501 -0.00000000000E+00  0.00000000000E+00  0.68285343634E+01  0.68285362234E+01  0.50400000000E-02 0.  1.
          1   -1    0    0  501    0  0.00000000000E+00 -0.00000000000E+00 -0.30557403413E+03  0.30557403417E+03  0.50400000000E-02 0. -1.
         23    2    1    2    0    0  0.17763568394E-14 -0.71054273576E-14 -0.29874549976E+03  0.31240257039E+03  0.91359139436E+02 0.  0.
    9000005    2    3    3    0    0  0.15642737037E+02 -0.37535149982E+02 -0.85927056152E+02  0.95733992496E+02  0.11311747612E+02 0.  0.
         22    1    3    3    0    0 -0.15642737037E+02  0.37535149982E+02 -0.21281844361E+03  0.21666857789E+03  0.00000000000E+00 0. -1.
         22    1    4    4    0    0 -0.93067023345E+00 -0.95720495229E+01 -0.22271439362E+02  0.24259169203E+02  0.00000000000E+00 0. -1.
         22    1    4    4    0    0  0.16573407271E+02 -0.27963100460E+02 -0.63655616790E+02  0.71474823293E+02  0.00000000000E+00 0. -1.
<mgrwt>
<rscale>  0 0.91359139E+02</rscale>
<asrwt>0</asrwt>
<pdfrwt beam="2">  1        1 0.47011379E-01 0.91359139E+02</pdfrwt>
<pdfrwt beam="1">  1       -1 0.10505441E-02 0.91359139E+02</pdfrwt>
<totfact> 0.12788828E+05</totfact>
</mgrwt>
</event>
<event>
 7    1  0.3565607E-009  0.8985337E+02  0.7818608E-02  0.1303207E+00
          1   -1    0    0  501    0  0.00000000000E+00  0.00000000000E+00  0.25778571138E+03  0.25778571143E+03  0.50400000000E-02 0. -1.
         -1   -1    0    0    0  501 -0.00000000000E+00 -0.00000000000E+00 -0.78297849422E+01  0.78297865643E+01  0.50400000000E-02 0.  1.
         23    2    1    2    0    0  0.35527136788E-14  0.00000000000E+00  0.24995592644E+03  0.26561549799E+03  0.89853367288E+02 0.  0.
    9000005    2    3    3    0    0  0.16314048162E+02 -0.16874315306E+01  0.24806825651E+03  0.24910614034E+03  0.15716668559E+02 0.  0.
         22    1    3    3    0    0 -0.16314048162E+02  0.16874315306E+01  0.18876699259E+01  0.16509357660E+02  0.00000000000E+00 0.  1.
         22    1    4    4    0    0  0.19034687134E+02 -0.32280850066E+01  0.22503224411E+03  0.22585891777E+03  0.00000000000E+00 0. -1.
         22    1    4    4    0    0 -0.27206389721E+01  0.15406534760E+01  0.23036012407E+02  0.23247222569E+02  0.00000000000E+00 0. -1.
<mgrwt>
<rscale>  0 0.89853367E+02</rscale>
<asrwt>0</asrwt>
<pdfrwt beam="1">  1        1 0.39659332E-01 0.89853367E+02</pdfrwt>
<pdfrwt beam="2">  1       -1 0.12045827E-02 0.89853367E+02</pdfrwt>
<totfact> 0.12935802E+05</totfact>
</mgrwt>
</event>
<event>
 7    1  0.3565607E-009  0.9033752E+02  0.7818608E-02  0.1302036E+00
         -1   -1    0    0    0  501 -0.00000000000E+00  0.00000000000E+00  0.67382652037E+02  0.67382652225E+02  0.50400000000E-02 0.  1.
          1   -1    0    0  501    0  0.00000000000E+00 -0.00000000000E+00 -0.30278074607E+02  0.30278075026E+02  0.50400000000E-02 0. -1.
         23    2    1    2    0    0  0.00000000000E+00  0.00000000000E+00  0.37104577430E+02  0.97660727251E+02  0.90337522553E+02 0.  0.
    9000005    2    3    3    0    0 -0.38663715972E+02 -0.22505816603E+02  0.16398254978E+02  0.48364211114E+02  0.82945425820E+01 0.  0.
         22    1    3    3    0    0  0.38663715972E+02  0.22505816603E+02  0.20706322452E+02  0.49296516137E+02  0.00000000000E+00 0.  1.
         22    1    4    4    0    0 -0.94928245232E+01 -0.94817897370E+01  0.65764859559E+01  0.14942162547E+02  0.00000000000E+00 0. -1.
         22    1    4    4    0    0 -0.29170891449E+02 -0.13024026866E+02  0.98217690220E+01  0.33422048568E+02  0.00000000000E+00 0. -1.
<mgrwt>
<rscale>  0 0.90337523E+02</rscale>
<asrwt>0</asrwt>
<pdfrwt beam="2">  1        1 0.46581654E-02 0.90337523E+02</pdfrwt>
<pdfrwt beam="1">  1       -1 0.10366562E-01 0.90337523E+02</pdfrwt>
<totfact> 0.89144362E+04</totfact>
</mgrwt>
</event>
<event>
 7    1  0.3565607E-009  0.9188525E+02  0.7818608E-02  0.1298349E+00
         -1   -1    0    0    0  501 -0.00000000000E+00  0.00000000000E+00  0.99637275585E+01  0.99637288333E+01  0.50400000000E-02 0.  1.
          1   -1    0    0  501    0  0.00000000000E+00 -0.00000000000E+00 -0.21184085790E+03  0.21184085796E+03  0.50400000000E-02 0. -1.
         23    2    1    2    0    0  0.00000000000E+00  0.00000000000E+00 -0.20187713034E+03  0.22180458680E+03  0.91885248913E+02 0.  0.
    9000005    2    3    3    0    0  0.34308003083E+02 -0.13097493531E+02 -0.16512337222E+03  0.16984862324E+03  0.15305010705E+02 0.  0.
         22    1    3    3    0    0 -0.34308003083E+02  0.13097493531E+02 -0.36753758129E+02  0.51955963555E+02  0.00000000000E+00 0.  1.
         22    1    4    4    0    0  0.17695770477E+02 -0.11118507014E+02 -0.11817123393E+03  0.12000500831E+03  0.00000000000E+00 0.  1.
         22    1    4    4    0    0  0.16612232607E+02 -0.19789865171E+01 -0.46952138290E+02  0.49843614935E+02  0.00000000000E+00 0.  1.
<mgrwt>
<rscale>  0 0.91885249E+02</rscale>
<asrwt>0</asrwt>
<pdfrwt beam="2">  1        1 0.32590898E-01 0.91885249E+02</pdfrwt>
<pdfrwt beam="1">  1       -1 0.15328814E-02 0.91885249E+02</pdfrwt>
<totfact> 0.11727743E+05</totfact>
</mgrwt>
</event>
<event>
 7    1  0.3565607E-009  0.9226810E+02  0.7818608E-02  0.1297450E+00
         -1   -1    0    0    0  501 -0.00000000000E+00  0.00000000000E+00  0.81288883572E+01  0.81288899196E+01  0.50400000000E-02 0.  1.
          1   -1    0    0  501    0  0.00000000000E+00 -0.00000000000E+00 -0.26182548550E+03  0.26182548555E+03  0.50400000000E-02 0. -1.
         23    2    1    2    0    0  0.00000000000E+00 -0.35527136788E-14 -0.25369659715E+03  0.26995437547E+03  0.92268095421E+02 0.  0.
    9000005    2    3    3    0    0  0.21977278576E+02 -0.31091770748E+02 -0.55780467130E+02  0.68409111319E+02  0.10892521119E+02 0.  0.
         22    1    3    3    0    0 -0.21977278576E+02  0.31091770748E+02 -0.19791613002E+03  0.20154526415E+03  0.00000000000E+00 0. -1.
         22    1    4    4    0    0  0.10982257382E+02 -0.16973766699E+02 -0.20182502884E+02  0.28566626609E+02  0.00000000000E+00 0. -1.
         22    1    4    4    0    0  0.10995021193E+02 -0.14118004049E+02 -0.35597964246E+02  0.39842484709E+02  0.00000000000E+00 0. -1.
<mgrwt>
<rscale>  0 0.92268095E+02</rscale>
<asrwt>0</asrwt>
<pdfrwt beam="2">  1        1 0.40280838E-01 0.92268095E+02</pdfrwt>
<pdfrwt beam="1">  1       -1 0.12505985E-02 0.92268095E+02</pdfrwt>
<totfact> 0.12088425E+05</totfact>
</mgrwt>
</event>
<event>
 7    1  0.3565607E-009  0.9264903E+02  0.7818608E-02  0.1296561E+00
          1   -1    0    0  501    0  0.00000000000E+00  0.00000000000E+00  0.44733103660E+02  0.44733103944E+02  0.50400000000E-02 0. -1.
         -1   -1    0    0    0  501 -0.00000000000E+00 -0.00000000000E+00 -0.47972540030E+02  0.47972540295E+02  0.50400000000E-02 0.  1.
         23    2    1    2    0    0  0.00000000000E+00  0.22204460493E-15 -0.32394363700E+01  0.92705644239E+02  0.92649028736E+02 0.  0.
    9000005    2    3    3    0    0 -0.11297114464E+02  0.16538267323E+01 -0.45609751345E+02  0.48823944988E+02  0.13159340724E+02 0.  0.
         22    1    3    3    0    0  0.11297114464E+02 -0.16538267323E+01  0.42370314975E+02  0.43881699251E+02  0.00000000000E+00 0. -1.
         22    1    4    4    0    0 -0.97137264309E+01  0.54889914591E+01 -0.41538978955E+02  0.43011304108E+02  0.00000000000E+00 0. -1.
         22    1    4    4    0    0 -0.15833880328E+01 -0.38351647268E+01 -0.40707723901E+01  0.58126408797E+01  0.00000000000E+00 0. -1.
<mgrwt>
<rscale>  0 0.92649029E+02</rscale>
<asrwt>0</asrwt>
<pdfrwt beam="1">  1        1 0.68820160E-02 0.92649029E+02</pdfrwt>
<pdfrwt beam="2">  1       -1 0.73803908E-02 0.92649029E+02</pdfrwt>
<totfact> 0.88142689E+04</totfact>
</mgrwt>
</event>
<event>
 7    1  0.3565607E-009  0.9002603E+02  0.7818608E-02  0.1302789E+00
         -1   -1    0    0    0  501 -0.00000000000E+00  0.00000000000E+00  0.24776878801E+02  0.24776879314E+02  0.50400000000E-02 0.  1.
          1   -1    0    0  501    0  0.00000000000E+00 -0.00000000000E+00 -0.81776705514E+02  0.81776705670E+02  0.50400000000E-02 0. -1.
         23    2    1    2    0    0  0.00000000000E+00  0.00000000000E+00 -0.56999826713E+02  0.10655358498E+03  0.90026030833E+02 0.  0.
    9000005    2    3    3    0    0 -0.12489217891E+02  0.18544787333E+02  0.17592798895E+02  0.28682219927E+02  0.36432768518E+01 0.  0.
         22    1    3    3    0    0  0.12489217891E+02 -0.18544787333E+02 -0.74592625608E+02  0.77871365057E+02  0.00000000000E+00 0. -1.
         22    1    4    4    0    0 -0.65627748806E+01  0.12076880694E+02  0.12245135505E+02  0.18408270016E+02  0.00000000000E+00 0.  1.
         22    1    4    4    0    0 -0.59264430105E+01  0.64679066388E+01  0.53476633898E+01  0.10273949911E+02  0.00000000000E+00 0.  1.
<mgrwt>
<rscale>  0 0.90026031E+02</rscale>
<asrwt>0</asrwt>
<pdfrwt beam="2">  1        1 0.12581032E-01 0.90026031E+02</pdfrwt>
<pdfrwt beam="1">  1       -1 0.38118276E-02 0.90026031E+02</pdfrwt>
<totfact> 0.10467315E+05</totfact>
</mgrwt>
</event>
<event>
 7    1  0.3565607E-009  0.9341119E+02  0.7818608E-02  0.1294795E+00
          1   -1    0    0  501    0  0.00000000000E+00  0.00000000000E+00  0.75110670832E+02  0.75110671001E+02  0.50400000000E-02 0. -1.
         -1   -1    0    0    0  501 -0.00000000000E+00 -0.00000000000E+00 -0.29042646019E+02  0.29042646457E+02  0.50400000000E-02 0.  1.
         23    2    1    2    0    0  0.00000000000E+00  0.00000000000E+00  0.46068024813E+02  0.10415331746E+03  0.93411191125E+02 0.  0.
    9000005    2    3    3    0    0  0.38280901989E+02 -0.25329600662E+02  0.16619476504E+02  0.49616787276E+02  0.88658024748E+01 0.  0.
         22    1    3    3    0    0 -0.38280901989E+02  0.25329600662E+02  0.29448548309E+02  0.54536530182E+02  0.00000000000E+00 0. -1.
         22    1    4    4    0    0  0.37743495759E+02 -0.24895771740E+02  0.17512614751E+02  0.48487757197E+02  0.00000000000E+00 0.  1.
         22    1    4    4    0    0  0.53740623035E+00 -0.43382892194E+00 -0.89313824695E+00  0.11290300785E+01  0.00000000000E+00 0.  1.
<mgrwt>
<rscale>  0 0.93411191E+02</rscale>
<asrwt>0</asrwt>
<pdfrwt beam="1">  1        1 0.11555488E-01 0.93411191E+02</pdfrwt>
<pdfrwt beam="2">  1       -1 0.44680995E-02 0.93411191E+02</pdfrwt>
<totfact> 0.93308429E+04</totfact>
</mgrwt>
</event>
<event>
 7    1  0.3565607E-009  0.8868639E+02  0.7818608E-02  0.1306064E+00
         -1   -1    0    0    0  501 -0.00000000000E+00  0.00000000000E+00  0.91151823080E+03  0.91151823081E+03  0.50400000000E-02 0.  1.
          1   -1    0    0  501    0  0.00000000000E+00 -0.00000000000E+00 -0.21571881726E+01  0.21571940602E+01  0.50400000000E-02 0. -1.
         23    2    1    2    0    0  0.00000000000E+00 -0.44408920985E-15  0.90936104262E+03  0.91367542487E+03  0.88686392251E+02 0.  0.
    9000005    2    3    3    0    0 -0.31738214151E+02 -0.38978516772E+01  0.76492276492E+03  0.76573988637E+03  0.15107276433E+02 0.  0.
         22    1    3    3    0    0  0.31738214151E+02  0.38978516772E+01  0.14443827771E+03  0.14793553850E+03  0.00000000000E+00 0. -1.
         22    1    4    4    0    0 -0.45794907762E+01 -0.75050929430E+00  0.28580630280E+03  0.28584397444E+03  0.00000000000E+00 0. -1.
         22    1    4    4    0    0 -0.27158723374E+02 -0.31473423829E+01  0.47911646212E+03  0.47989591193E+03  0.00000000000E+00 0. -1.
<mgrwt>
<rscale>  0 0.88686392E+02</rscale>
<asrwt>0</asrwt>
<pdfrwt beam="2">  1        1 0.33187545E-03 0.88686392E+02</pdfrwt>
<pdfrwt beam="1">  1       -1 0.14023362E+00 0.88686392E+02</pdfrwt>
<totfact> 0.30694677E+04</totfact>
</mgrwt>
</event>
<event>
 7    1  0.3565607E-009  0.9258780E+02  0.7818608E-02  0.1296703E+00
         -1   -1    0    0    0  501 -0.00000000000E+00  0.00000000000E+00  0.20797237973E+02  0.20797238584E+02  0.50400000000E-02 0.  1.
          1   -1    0    0  501    0  0.00000000000E+00 -0.00000000000E+00 -0.10304855046E+03  0.10304855059E+03  0.50400000000E-02 0. -1.
         23    2    1    2    0    0 -0.35527136788E-14 -0.17763568394E-14 -0.82251312491E+02  0.12384578917E+03  0.92587802053E+02 0.  0.
    9000005    2    3    3    0    0 -0.21555076697E+02 -0.10860393438E+02  0.10375472425E+02  0.28125933546E+02  0.10042322081E+02 0.  0.
         22    1    3    3    0    0  0.21555076697E+02  0.10860393438E+02 -0.92626784915E+02  0.95719855625E+02  0.00000000000E+00 0. -1.
         22    1    4    4    0    0 -0.36450779095E+01 -0.49476656846E+01 -0.80881530054E+00  0.61984006714E+01  0.00000000000E+00 0.  1.
         22    1    4    4    0    0 -0.17909998788E+02 -0.59127277530E+01  0.11184287725E+02  0.21927532875E+02  0.00000000000E+00 0.  1.
<mgrwt>
<rscale>  0 0.92587802E+02</rscale>
<asrwt>0</asrwt>
<pdfrwt beam="2">  1        1 0.15853623E-01 0.92587802E+02</pdfrwt>
<pdfrwt beam="1">  1       -1 0.31995752E-02 0.92587802E+02</pdfrwt>
<totfact> 0.10066816E+05</totfact>
</mgrwt>
</event>
<event>
 7    1  0.3565607E-009  0.9001508E+02  0.7818608E-02  0.1302815E+00
         -1   -1    0    0    0  501 -0.00000000000E+00  0.00000000000E+00  0.62498957579E+01  0.62498977900E+01  0.50400000000E-02 0.  1.
          1   -1    0    0  501    0  0.00000000000E+00 -0.00000000000E+00 -0.32411394300E+03  0.32411394304E+03  0.50400000000E-02 0. -1.
         23    2    1    2    0    0  0.17763568394E-14  0.00000000000E+00 -0.31786404725E+03  0.33036384083E+03  0.90015080950E+02 0.  0.
    9000005    2    3    3    0    0  0.12038604606E+02  0.42026243469E+02 -0.15509593922E+03  0.16182722721E+03  0.14905299837E+02 0.  0.
         22    1    3    3    0    0 -0.12038604606E+02 -0.42026243469E+02 -0.16276810802E+03  0.16853661362E+03  0.00000000000E+00 0. -1.
         22    1    4    4    0    0  0.69358762715E+01  0.60638116484E+01 -0.21703908945E+02  0.23578292026E+02  0.00000000000E+00 0. -1.
         22    1    4    4    0    0  0.51027283347E+01  0.35962431820E+02 -0.13339203028E+03  0.13824893519E+03  0.00000000000E+00 0. -1.
<mgrwt>
<rscale>  0 0.90015081E+02</rscale>
<asrwt>0</asrwt>
<pdfrwt beam="2">  1        1 0.49863670E-01 0.90015081E+02</pdfrwt>
<pdfrwt beam="1">  1       -1 0.96152284E-03 0.90015081E+02</pdfrwt>
<totfact> 0.13450893E+05</totfact>
</mgrwt>
</event>
<event>
 7    1  0.3565607E-009  0.9012742E+02  0.7818608E-02  0.1302543E+00
          1   -1    0    0  501    0  0.00000000000E+00  0.00000000000E+00  0.10420651372E+03  0.10420651384E+03  0.50400000000E-02 0. -1.
         -1   -1    0    0    0  501 -0.00000000000E+00 -0.00000000000E+00 -0.19487627229E+02  0.19487627881E+02  0.50400000000E-02 0.  1.
         23    2    1    2    0    0  0.00000000000E+00  0.00000000000E+00  0.84718886489E+02  0.12369414172E+03  0.90127415187E+02 0.  0.
    9000005    2    3    3    0    0  0.84116687136E+01  0.30084198818E+02 -0.25618782317E+00  0.33159184697E+02  0.11119834013E+02 0.  0.
         22    1    3    3    0    0 -0.84116687136E+01 -0.30084198818E+02  0.84975074312E+02  0.90534957025E+02  0.00000000000E+00 0. -1.
         22    1    4    4    0    0  0.36168656707E+01  0.21940472758E+01 -0.22467985368E+01  0.47899545294E+01  0.00000000000E+00 0.  1.
         22    1    4    4    0    0  0.47948030428E+01  0.27890151543E+02  0.19906107136E+01  0.28369230168E+02  0.00000000000E+00 0.  1.
<mgrwt>
<rscale>  0 0.90127415E+02</rscale>
<asrwt>0</asrwt>
<pdfrwt beam="1">  1        1 0.16031771E-01 0.90127415E+02</pdfrwt>
<pdfrwt beam="2">  1       -1 0.29980966E-02 0.90127415E+02</pdfrwt>
<totfact> 0.10853649E+05</totfact>
</mgrwt>
</event>
<event>
 7    1  0.3565607E-009  0.9606510E+02  0.7818608E-02  0.1288795E+00
          1   -1    0    0  501    0  0.00000000000E+00  0.00000000000E+00  0.23600996577E+03  0.23600996582E+03  0.50400000000E-02 0. -1.
         -1   -1    0    0    0  501 -0.00000000000E+00 -0.00000000000E+00 -0.97755431972E+01  0.97755444965E+01  0.50400000000E-02 0.  1.
         23    2    1    2    0    0  0.00000000000E+00 -0.71054273576E-14  0.22623442257E+03  0.24578551032E+03  0.96065098379E+02 0.  0.
    9000005    2    3    3    0    0  0.14281625244E+02  0.35989374499E+02  0.45929944376E+02  0.61370476350E+02  0.12552915223E+02 0.  0.
         22    1    3    3    0    0 -0.14281625244E+02 -0.35989374499E+02  0.18030447820E+03  0.18441503397E+03  0.00000000000E+00 0. -1.
         22    1    4    4    0    0  0.14667855987E+01 -0.81596643624E+00  0.13262084504E+01  0.21391797661E+01  0.00000000000E+00 0.  1.
         22    1    4    4    0    0  0.12814839645E+02  0.36805340935E+02  0.44603735926E+02  0.59231296584E+02  0.00000000000E+00 0.  1.
<mgrwt>
<rscale>  0 0.96065098E+02</rscale>
<asrwt>0</asrwt>
<pdfrwt beam="1">  1        1 0.36309219E-01 0.96065098E+02</pdfrwt>
<pdfrwt beam="2">  1       -1 0.15039301E-02 0.96065098E+02</pdfrwt>
<totfact> 0.10629860E+05</totfact>
</mgrwt>
</event>
<event>
 7    1  0.3565607E-009  0.9173698E+02  0.7818608E-02  0.1298699E+00
          1   -1    0    0  501    0  0.00000000000E+00  0.00000000000E+00  0.77767203325E+03  0.77767203326E+03  0.50400000000E-02 0. -1.
         -1   -1    0    0    0  501 -0.00000000000E+00 -0.00000000000E+00 -0.27054032455E+01  0.27054079401E+01  0.50400000000E-02 0.  1.
         23    2    1    2    0    0  0.00000000000E+00  0.00000000000E+00  0.77496663000E+03  0.78037744121E+03  0.91736977950E+02 0.  0.
    9000005    2    3    3    0    0 -0.41448687059E+02  0.79040897003E+01  0.53400358355E+03  0.53574780676E+03  0.92421269561E+01 0.  0.
         22    1    3    3    0    0  0.41448687059E+02 -0.79040897003E+01  0.24096304646E+03  0.24462963445E+03  0.00000000000E+00 0.  1.
         22    1    4    4    0    0 -0.27199782545E+02  0.55597393913E+01  0.29312270264E+03  0.29443447094E+03  0.00000000000E+00 0. -1.
         22    1    4    4    0    0 -0.14248904515E+02  0.23443503090E+01  0.24088088090E+03  0.24131333582E+03  0.00000000000E+00 0. -1.
<mgrwt>
<rscale>  0 0.91736978E+02</rscale>
<asrwt>0</asrwt>
<pdfrwt beam="1">  1        1 0.11964160E+00 0.91736978E+02</pdfrwt>
<pdfrwt beam="2">  1       -1 0.41621713E-03 0.91736978E+02</pdfrwt>
<totfact> 0.13933626E+05</totfact>
</mgrwt>
</event>
<event>
 7    1  0.3565607E-009  0.9167854E+02  0.7818608E-02  0.1298837E+00
         -1   -1    0    0    0  501 -0.00000000000E+00  0.00000000000E+00  0.21747318400E+02  0.21747318985E+02  0.50400000000E-02 0.  1.
          1   -1    0    0  501    0  0.00000000000E+00 -0.00000000000E+00 -0.96620582232E+02  0.96620582363E+02  0.50400000000E-02 0. -1.
         23    2    1    2    0    0 -0.17763568394E-14  0.71054273576E-14 -0.74873263831E+02  0.11836790135E+03  0.91678538561E+02 0.  0.
    9000005    2    3    3    0    0  0.11905495177E+02 -0.36641170595E+02 -0.68480521516E+02  0.79314305454E+02  0.10810227771E+02 0.  0.
         22    1    3    3    0    0 -0.11905495177E+02  0.36641170595E+02 -0.63927423146E+01  0.39053595894E+02  0.00000000000E+00 0.  1.
         22    1    4    4    0    0  0.30138533239E+01 -0.55638228706E+01 -0.49520273527E+01  0.80350489541E+01  0.00000000000E+00 0.  1.
         22    1    4    4    0    0  0.88916418529E+01 -0.31077347724E+02 -0.63528494164E+02  0.71279256500E+02  0.00000000000E+00 0.  1.
<mgrwt>
<rscale>  0 0.91678539E+02</rscale>
<asrwt>0</asrwt>
<pdfrwt beam="2">  1        1 0.14864705E-01 0.91678539E+02</pdfrwt>
<pdfrwt beam="1">  1       -1 0.33457414E-02 0.91678539E+02</pdfrwt>
<totfact> 0.10231327E+05</totfact>
</mgrwt>
</event>
<event>
 7    1  0.3565607E-009  0.9195001E+02  0.7818608E-02  0.1298197E+00
          1   -1    0    0  501    0  0.00000000000E+00  0.00000000000E+00  0.75343532629E+01  0.75343549486E+01  0.50400000000E-02 0.  1.
         -1   -1    0    0    0  501 -0.00000000000E+00 -0.00000000000E+00 -0.28054179251E+03  0.28054179255E+03  0.50400000000E-02 0. -1.
         23    2    1    2    0    0  0.00000000000E+00 -0.71054273576E-14 -0.27300743925E+03  0.28807614750E+03  0.91950012922E+02 0.  0.
    9000005    2    3    3    0    0 -0.93157659698E+01 -0.38618076941E+02 -0.20789289897E+03  0.21180005218E+03  0.78527256066E+01 0.  0.
         22    1    3    3    0    0  0.93157659698E+01  0.38618076941E+02 -0.65114540276E+02  0.76276095322E+02  0.00000000000E+00 0.  1.
         22    1    4    4    0    0 -0.72202697794E+01 -0.22244218561E+02 -0.10343888541E+03  0.10604970802E+03  0.00000000000E+00 0. -1.
         22    1    4    4    0    0 -0.20954961903E+01 -0.16373858379E+02 -0.10445401356E+03  0.10575034417E+03  0.00000000000E+00 0. -1.
<mgrwt>
<rscale>  0 0.91950013E+02</rscale>
<asrwt>0</asrwt>
<pdfrwt beam="1">  1        1 0.11591316E-02 0.91950013E+02</pdfrwt>
<pdfrwt beam="2">  1       -1 0.43160268E-01 0.91950013E+02</pdfrwt>
<totfact> 0.60804667E+04</totfact>
</mgrwt>
</event>
<event>
 7    1  0.3565607E-009  0.8961200E+02  0.7818608E-02  0.1303794E+00
         -1   -1    0    0    0  501 -0.00000000000E+00  0.00000000000E+00  0.19781568183E+03  0.19781568190E+03  0.50400000000E-02 0.  1.
          1   -1    0    0  501    0  0.00000000000E+00 -0.00000000000E+00 -0.10148728748E+02  0.10148729999E+02  0.50400000000E-02 0. -1.
         23    2    1    2    0    0  0.00000000000E+00  0.00000000000E+00  0.18766695308E+03  0.20796441190E+03  0.89612004415E+02 0.  0.
    9000005    2    3    3    0    0  0.36837661974E+02 -0.25359226644E+02  0.88060848793E+02  0.98778882966E+02  0.15655395723E+01 0.  0.
         22    1    3    3    0    0 -0.36837661974E+02  0.25359226644E+02  0.99606104291E+02  0.10918552893E+03  0.00000000000E+00 0. -1.
         22    1    4    4    0    0  0.14766218215E+02 -0.11064540464E+02  0.35843985608E+02  0.40314470855E+02  0.00000000000E+00 0. -1.
         22    1    4    4    0    0  0.22071443759E+02 -0.14294686180E+02  0.52216863185E+02  0.58464412111E+02  0.00000000000E+00 0. -1.
<mgrwt>
<rscale>  0 0.89612004E+02</rscale>
<asrwt>0</asrwt>
<pdfrwt beam="2">  1        1 0.15613429E-02 0.89612004E+02</pdfrwt>
<pdfrwt beam="1">  1       -1 0.30433183E-01 0.89612004E+02</pdfrwt>
<totfact> 0.72850907E+04</totfact>
</mgrwt>
</event>
<event>
 7    1  0.3565607E-009  0.9000949E+02  0.7818608E-02  0.1302829E+00
         -1   -1    0    0    0  501 -0.00000000000E+00  0.00000000000E+00  0.27153718604E+02  0.27153719072E+02  0.50400000000E-02 0.  1.
          1   -1    0    0  501    0  0.00000000000E+00 -0.00000000000E+00 -0.74591149168E+02  0.74591149339E+02  0.50400000000E-02 0. -1.
         23    2    1    2    0    0  0.00000000000E+00  0.00000000000E+00 -0.47437430564E+02  0.10174486841E+03  0.90009490773E+02 0.  0.
    9000005    2    3    3    0    0 -0.19427206425E+02  0.35982128368E+02 -0.59303044439E+01  0.43478485047E+02  0.13530714682E+02 0.  0.
         22    1    3    3    0    0  0.19427206425E+02 -0.35982128368E+02 -0.41507126121E+02  0.58266383363E+02  0.00000000000E+00 0.  1.
         22    1    4    4    0    0 -0.15005738201E+02  0.33954101374E+02 -0.83437737054E+01  0.38048281679E+02  0.00000000000E+00 0.  1.
         22    1    4    4    0    0 -0.44214682241E+01  0.20280269947E+01  0.24134692615E+01  0.54302033686E+01  0.00000000000E+00 0.  1.
<mgrwt>
<rscale>  0 0.90009491E+02</rscale>
<asrwt>0</asrwt>
<pdfrwt beam="2">  1        1 0.11475561E-01 0.90009491E+02</pdfrwt>
<pdfrwt beam="1">  1       -1 0.41774953E-02 0.90009491E+02</pdfrwt>
<totfact> 0.10323448E+05</totfact>
</mgrwt>
</event>
<event>
 7    1  0.3565607E-009  0.9548897E+02  0.7818608E-02  0.1290079E+00
         -1   -1    0    0    0  501 -0.00000000000E+00  0.00000000000E+00  0.37310738397E+01  0.37310772438E+01  0.50400000000E-02 0.  1.
          1   -1    0    0  501    0  0.00000000000E+00 -0.00000000000E+00 -0.61095939373E+03  0.61095939375E+03  0.50400000000E-02 0. -1.
         23    2    1    2    0    0  0.00000000000E+00  0.00000000000E+00 -0.60722831989E+03  0.61469047100E+03  0.95488966141E+02 0.  0.
    9000005    2    3    3    0    0  0.23389786844E+02  0.88818315072E+01 -0.56373078122E+03  0.56451074471E+03  0.15937946526E+02 0.  0.
         22    1    3    3    0    0 -0.23389786844E+02 -0.88818315072E+01 -0.43497538668E+02  0.50179726282E+02  0.00000000000E+00 0.  1.
         22    1    4    4    0    0  0.13817193062E+02 -0.53507327850E+00 -0.39676039307E+03  0.39700127284E+03  0.00000000000E+00 0.  1.
         22    1    4    4    0    0  0.95725937819E+01  0.94169047857E+01 -0.16697038815E+03  0.16750947187E+03  0.00000000000E+00 0.  1.
<mgrwt>
<rscale>  0 0.95488966E+02</rscale>
<asrwt>0</asrwt>
<pdfrwt beam="2">  1        1 0.93993674E-01 0.95488966E+02</pdfrwt>
<pdfrwt beam="1">  1       -1 0.57401211E-03 0.95488966E+02</pdfrwt>
<totfact> 0.12537869E+05</totfact>
</mgrwt>
</event>
<event>
 7    1  0.3565607E-009  0.9242762E+02  0.7818608E-02  0.1297077E+00
          1   -1    0    0  501    0  0.00000000000E+00  0.00000000000E+00  0.15193693543E+03  0.15193693551E+03  0.50400000000E-02 0. -1.
         -1   -1    0    0    0  501 -0.00000000000E+00 -0.00000000000E+00 -0.14056597114E+02  0.14056598017E+02  0.50400000000E-02 0.  1.
         23    2    1    2    0    0 -0.35527136788E-14  0.00000000000E+00  0.13788033831E+03  0.16599353353E+03  0.92427622926E+02 0.  0.
    9000005    2    3    3    0    0 -0.29078749366E+02 -0.29380272500E+02  0.10292625295E+03  0.11185886663E+03  0.14485110296E+02 0.  0.
         22    1    3    3    0    0  0.29078749366E+02  0.29380272500E+02  0.34954085368E+02  0.54134666904E+02  0.00000000000E+00 0.  1.
         22    1    4    4    0    0 -0.79422326528E+01 -0.13007178248E+01  0.12771227728E+02  0.15095535236E+02  0.00000000000E+00 0.  1.
         22    1    4    4    0    0 -0.21136516713E+02 -0.28079554676E+02  0.90155025218E+02  0.96763331389E+02  0.00000000000E+00 0.  1.
<mgrwt>
<rscale>  0 0.92427623E+02</rscale>
<asrwt>0</asrwt>
<pdfrwt beam="1">  1        1 0.23374914E-01 0.92427623E+02</pdfrwt>
<pdfrwt beam="2">  1       -1 0.21625534E-02 0.92427623E+02</pdfrwt>
<totfact> 0.10833606E+05</totfact>
</mgrwt>
</event>
<event>
 7    1  0.3985178E-009  0.9115255E+02  0.7818608E-02  0.1300084E+00
         -1   -1    0    0    0  501 -0.00000000000E+00  0.00000000000E+00  0.48704152984E+03  0.48704152987E+03  0.50400000000E-02 0.  1.
          1   -1    0    0  501    0  0.00000000000E+00 -0.00000000000E+00 -0.42649264811E+01  0.42649294591E+01  0.50400000000E-02 0. -1.
         23    2    1    2    0    0  0.35527136788E-14  0.00000000000E+00  0.48277660336E+03  0.49130645933E+03  0.91152554676E+02 0.  0.
    9000005    2    3    3    0    0  0.25022649072E+02  0.24404881630E+01  0.44481155344E+03  0.44577148415E+03  0.14926789912E+02 0.  0.
         22    1    3    3    0    0 -0.25022649072E+02 -0.24404881630E+01  0.37965049923E+02  0.45534975181E+02  0.00000000000E+00 0. -1.
         22    1    4    4    0    0  0.26078114172E+02 -0.40625644325E-01  0.42118958790E+03  0.42199613581E+03  0.00000000000E+00 0. -1.
         22    1    4    4    0    0 -0.10554650994E+01  0.24811138073E+01  0.23621965542E+02  0.23775348333E+02  0.00000000000E+00 0. -1.
<mgrwt>
<rscale>  0 0.91152555E+02</rscale>
<asrwt>0</asrwt>
<pdfrwt beam="2">  1        1 0.65614283E-03 0.91152555E+02</pdfrwt>
<pdfrwt beam="1">  1       -1 0.74929459E-01 0.91152555E+02</pdfrwt>
<totfact> 0.47835058E+04</totfact>
</mgrwt>
</event>
<event>
 7    1  0.3565607E-009  0.9123449E+02  0.7818608E-02  0.1299889E+00
         -1   -1    0    0    0  501 -0.00000000000E+00  0.00000000000E+00  0.61316086027E+02  0.61316086235E+02  0.50400000000E-02 0.  1.
          1   -1    0    0  501    0  0.00000000000E+00 -0.00000000000E+00 -0.33937796882E+02  0.33937797256E+02  0.50400000000E-02 0. -1.
         23    2    1    2    0    0  0.88817841970E-15  0.71054273576E-14  0.27378289146E+02  0.95253883491E+02  0.91234486920E+02 0.  0.
    9000005    2    3    3    0    0  0.75220489369E+01  0.40672625930E+02  0.33266417054E+02  0.53474537271E+02  0.64828938379E+01 0.  0.
         22    1    3    3    0    0 -0.75220489369E+01 -0.40672625930E+02 -0.58881279088E+01  0.41779346219E+02  0.00000000000E+00 0. -1.
         22    1    4    4    0    0  0.60660457873E+01  0.34886463368E+02  0.25291267906E+02  0.43514485751E+02  0.00000000000E+00 0. -1.
         22    1    4    4    0    0  0.14560031496E+01  0.57861625615E+01  0.79751491480E+01  0.99600515206E+01  0.00000000000E+00 0. -1.
<mgrwt>
<rscale>  0 0.91234487E+02</rscale>
<asrwt>0</asrwt>
<pdfrwt beam="2">  1        1 0.52211996E-02 0.91234487E+02</pdfrwt>
<pdfrwt beam="1">  1       -1 0.94332440E-02 0.91234487E+02</pdfrwt>
<totfact> 0.88238903E+04</totfact>
</mgrwt>
</event>
<event>
 7    1  0.3565607E-009  0.9321376E+02  0.7818608E-02  0.1295251E+00
          1   -1    0    0  501    0  0.00000000000E+00  0.00000000000E+00  0.67563539479E+03  0.67563539481E+03  0.50400000000E-02 0. -1.
         -1   -1    0    0    0  501 -0.00000000000E+00 -0.00000000000E+00 -0.32150474971E+01  0.32150514476E+01  0.50400000000E-02 0.  1.
         23    2    1    2    0    0  0.88817841970E-15  0.00000000000E+00  0.67242034729E+03  0.67885044625E+03  0.93213759333E+02 0.  0.
    9000005    2    3    3    0    0  0.64975089993E+01 -0.39920478201E+02  0.50449958029E+03  0.50612741307E+03  0.30445923879E+01 0.  0.
         22    1    3    3    0    0 -0.64975089993E+01  0.39920478201E+02  0.16792076700E+03  0.17272303318E+03  0.00000000000E+00 0.  1.
         22    1    4    4    0    0  0.51300379419E+01 -0.30442591545E+02  0.36830228591E+03  0.36959388858E+03  0.00000000000E+00 0.  1.
         22    1    4    4    0    0  0.13674710574E+01 -0.94778866559E+01  0.13619729438E+03  0.13653352449E+03  0.00000000000E+00 0.  1.
<mgrwt>
<rscale>  0 0.93213759E+02</rscale>
<asrwt>0</asrwt>
<pdfrwt beam="1">  1        1 0.10394405E+00 0.93213759E+02</pdfrwt>
<pdfrwt beam="2">  1       -1 0.49462232E-03 0.93213759E+02</pdfrwt>
<totfact> 0.13409565E+05</totfact>
</mgrwt>
</event>
<event>
 7    1  0.3565607E-009  0.9292545E+02  0.7818608E-02  0.1295918E+00
          1   -1    0    0  501    0  0.00000000000E+00  0.00000000000E+00  0.23188324131E+03  0.23188324136E+03  0.50400000000E-02 0. -1.
         -1   -1    0    0    0  501 -0.00000000000E+00 -0.00000000000E+00 -0.93097916328E+01  0.93097929970E+01  0.50400000000E-02 0.  1.
         23    2    1    2    0    0  0.00000000000E+00  0.00000000000E+00  0.22257344968E+03  0.24119303436E+03  0.92925450354E+02 0.  0.
    9000005    2    3    3    0    0  0.14800827866E+02 -0.43002887454E+02  0.12828068741E+03  0.13650570060E+03  0.10467029092E+02 0.  0.
         22    1    3    3    0    0 -0.14800827866E+02  0.43002887454E+02  0.94292762267E+02  0.10468733376E+03  0.00000000000E+00 0. -1.
         22    1    4    4    0    0  0.44168513696E+01 -0.25611394405E+02  0.81044277888E+02  0.85109500514E+02  0.00000000000E+00 0. -1.
         22    1    4    4    0    0  0.10383976496E+02 -0.17391493049E+02  0.47236409523E+02  0.51396200083E+02  0.00000000000E+00 0. -1.
<mgrwt>
<rscale>  0 0.92925450E+02</rscale>
<asrwt>0</asrwt>
<pdfrwt beam="1">  1        1 0.35674344E-01 0.92925450E+02</pdfrwt>
<pdfrwt beam="2">  1       -1 0.14322758E-02 0.92925450E+02</pdfrwt>
<totfact> 0.11582060E+05</totfact>
</mgrwt>
</event>
<event>
 7    1  0.3565607E-009  0.9243689E+02  0.7818608E-02  0.1297055E+00
          1   -1    0    0  501    0  0.00000000000E+00  0.00000000000E+00  0.62731644204E+01  0.62731664450E+01  0.50400000000E-02 0. -1.
         -1   -1    0    0    0  501 -0.00000000000E+00 -0.00000000000E+00 -0.34052099784E+03  0.34052099787E+03  0.50400000000E-02 0.  1.
         23    2    1    2    0    0  0.35527136788E-14  0.44408920985E-15 -0.33424783342E+03  0.34679416432E+03  0.92436887995E+02 0.  0.
    9000005    2    3    3    0    0  0.19361257845E+02 -0.37120914085E+01 -0.32367065417E+03  0.32442197961E+03  0.99141591864E+01 0.  0.
         22    1    3    3    0    0 -0.19361257845E+02  0.37120914085E+01 -0.10577179244E+02  0.22372184711E+02  0.00000000000E+00 0. -1.
         22    1    4    4    0    0  0.22838876067E+01  0.21695484900E+01 -0.89659482916E+02  0.89714803461E+02  0.00000000000E+00 0. -1.
         22    1    4    4    0    0  0.17077370239E+02 -0.58816398985E+01 -0.23401117126E+03  0.23470717615E+03  0.00000000000E+00 0. -1.
<mgrwt>
<rscale>  0 0.92436888E+02</rscale>
<asrwt>0</asrwt>
<pdfrwt beam="1">  1        1 0.96510264E-03 0.92436888E+02</pdfrwt>
<pdfrwt beam="2">  1       -1 0.52387831E-01 0.92436888E+02</pdfrwt>
<totfact> 0.55451263E+04</totfact>
</mgrwt>
</event>
<event>
 7    1  0.3565607E-009  0.9068917E+02  0.7818608E-02  0.1301191E+00
         -1   -1    0    0    0  501 -0.00000000000E+00  0.00000000000E+00  0.93471104433E+02  0.93471104569E+02  0.50400000000E-02 0.  1.
          1   -1    0    0  501    0  0.00000000000E+00 -0.00000000000E+00 -0.21997509942E+02  0.21997510520E+02  0.50400000000E-02 0. -1.
         23    2    1    2    0    0  0.00000000000E+00  0.00000000000E+00  0.71473594491E+02  0.11546861509E+03  0.90689174443E+02 0.  0.
    9000005    2    3    3    0    0 -0.28433067127E+02 -0.33722589307E+02  0.29471754631E+02  0.54560431013E+02  0.12751626386E+02 0.  0.
         22    1    3    3    0    0  0.28433067127E+02  0.33722589307E+02  0.42001839860E+02  0.60908184076E+02  0.00000000000E+00 0.  1.
         22    1    4    4    0    0 -0.20789883742E+02 -0.31867499223E+02  0.24575348843E+02  0.45295745313E+02  0.00000000000E+00 0. -1.
         22    1    4    4    0    0 -0.76431833850E+01 -0.18550900839E+01  0.48964057885E+01  0.92646857001E+01  0.00000000000E+00 0. -1.
<mgrwt>
<rscale>  0 0.90689174E+02</rscale>
<asrwt>0</asrwt>
<pdfrwt beam="2">  1        1 0.33842324E-02 0.90689174E+02</pdfrwt>
<pdfrwt beam="1">  1       -1 0.14380170E-01 0.90689174E+02</pdfrwt>
<totfact> 0.83525814E+04</totfact>
</mgrwt>
</event>
<event>
 7    1  0.3565607E-009  0.8893862E+02  0.7818608E-02  0.1305443E+00
          1   -1    0    0  501    0  0.00000000000E+00  0.00000000000E+00  0.25952792795E+03  0.25952792800E+03  0.50400000000E-02 0. -1.
         -1   -1    0    0    0  501 -0.00000000000E+00 -0.00000000000E+00 -0.76196789606E+01  0.76196806275E+01  0.50400000000E-02 0.  1.
         23    2    1    2    0    0  0.00000000000E+00 -0.55511151231E-16  0.25190824899E+03  0.26714760863E+03  0.88938624264E+02 0.  0.
    9000005    2    3    3    0    0 -0.38447012676E+02  0.19242560915E+00  0.62742600669E+02  0.74114315343E+02  0.88367408466E+01 0.  0.
         22    1    3    3    0    0  0.38447012676E+02 -0.19242560915E+00  0.18916564832E+03  0.19303329328E+03  0.00000000000E+00 0. -1.
         22    1    4    4    0    0 -0.81472077392E+00  0.14034785984E+01  0.14261676986E+01  0.21604343128E+01  0.00000000000E+00 0. -1.
         22    1    4    4    0    0 -0.37632291902E+02 -0.12110529892E+01  0.61316432970E+02  0.71953881030E+02  0.00000000000E+00 0. -1.
<mgrwt>
<rscale>  0 0.88938624E+02</rscale>
<asrwt>0</asrwt>
<pdfrwt beam="1">  1        1 0.39927374E-01 0.88938624E+02</pdfrwt>
<pdfrwt beam="2">  1       -1 0.11722584E-02 0.88938624E+02</pdfrwt>
<totfact> 0.13310612E+05</totfact>
</mgrwt>
</event>
<event>
 7    1  0.3565607E-009  0.9139892E+02  0.7818608E-02  0.1299499E+00
         -1   -1    0    0    0  501 -0.00000000000E+00  0.00000000000E+00  0.49778086006E+01  0.49778111521E+01  0.50400000000E-02 0.  1.
          1   -1    0    0  501    0  0.00000000000E+00 -0.00000000000E+00 -0.41955013397E+03  0.41955013400E+03  0.50400000000E-02 0. -1.
         23    2    1    2    0    0  0.00000000000E+00  0.00000000000E+00 -0.41457232537E+03  0.42452794515E+03  0.91398923697E+02 0.  0.
    9000005    2    3    3    0    0 -0.42631881034E+02 -0.11696097491E+02 -0.25244692533E+03  0.25648354234E+03  0.10004069577E+02 0.  0.
         22    1    3    3    0    0  0.42631881034E+02  0.11696097491E+02 -0.16212540004E+03  0.16804440281E+03  0.00000000000E+00 0. -1.
         22    1    4    4    0    0 -0.24879726696E+02 -0.51314896051E+01 -0.11741996401E+03  0.12013650958E+03  0.00000000000E+00 0. -1.
         22    1    4    4    0    0 -0.17752154338E+02 -0.65646078858E+01 -0.13502696132E+03  0.13634703276E+03  0.00000000000E+00 0. -1.
<mgrwt>
<rscale>  0 0.91398924E+02</rscale>
<asrwt>0</asrwt>
<pdfrwt beam="2">  1        1 0.64546147E-01 0.91398924E+02</pdfrwt>
<pdfrwt beam="1">  1       -1 0.76581724E-03 0.91398924E+02</pdfrwt>
<totfact> 0.13504986E+05</totfact>
</mgrwt>
</event>
<event>
 7    1  0.3565607E-009  0.9197702E+02  0.7818608E-02  0.1298133E+00
          1   -1    0    0  501    0  0.00000000000E+00  0.00000000000E+00  0.54577808198E+01  0.54577831469E+01  0.50400000000E-02 0. -1.
         -1   -1    0    0    0  501 -0.00000000000E+00 -0.00000000000E+00 -0.38750962135E+03  0.38750962138E+03  0.50400000000E-02 0.  1.
         23    2    1    2    0    0  0.00000000000E+00 -0.11102230246E-15 -0.38205184053E+03  0.39296740453E+03  0.91977019794E+02 0.  0.
    9000005    2    3    3    0    0 -0.45436895499E+02 -0.93179735377E+00 -0.21241888737E+03  0.21735214746E+03  0.74022005997E+01 0.  0.
         22    1    3    3    0    0  0.45436895499E+02  0.93179735377E+00 -0.16963295316E+03  0.17561525707E+03  0.00000000000E+00 0. -1.
         22    1    4    4    0    0 -0.22646188865E+02  0.23837956605E+00 -0.88661953259E+02  0.91508735379E+02  0.00000000000E+00 0. -1.
         22    1    4    4    0    0 -0.22790706634E+02 -0.11701769198E+01 -0.12375693411E+03  0.12584341208E+03  0.00000000000E+00 0. -1.
<mgrwt>
<rscale>  0 0.91977020E+02</rscale>
<asrwt>0</asrwt>
<pdfrwt beam="1">  1        1 0.83965907E-03 0.91977020E+02</pdfrwt>
<pdfrwt beam="2">  1       -1 0.59616843E-01 0.91977020E+02</pdfrwt>
<totfact> 0.52912581E+04</totfact>
</mgrwt>
</event>
<event>
 7    1  0.3565607E-009  0.9186369E+02  0.7818608E-02  0.1298400E+00
          1   -1    0    0  501    0  0.00000000000E+00  0.00000000000E+00  0.38443130115E+02  0.38443130446E+02  0.50400000000E-02 0. -1.
         -1   -1    0    0    0  501 -0.00000000000E+00 -0.00000000000E+00 -0.54879357658E+02  0.54879357890E+02  0.50400000000E-02 0.  1.
         23    2    1    2    0    0  0.00000000000E+00  0.00000000000E+00 -0.16436227543E+02  0.93322488335E+02  0.91863688437E+02 0.  0.
    9000005    2    3    3    0    0  0.43142242442E+02  0.11441100157E+02 -0.39355933185E+01  0.46971461251E+02  0.14095297852E+02 0.  0.
         22    1    3    3    0    0 -0.43142242442E+02 -0.11441100157E+02 -0.12500634224E+02  0.46351027084E+02  0.00000000000E+00 0. -1.
         22    1    4    4    0    0  0.37764477772E+02  0.11727224025E+02  0.11558387734E+01  0.39560327704E+02  0.00000000000E+00 0.  1.
         22    1    4    4    0    0  0.53777646697E+01 -0.28612386707E+00 -0.50914320919E+01  0.74111335473E+01  0.00000000000E+00 0.  1.
<mgrwt>
<rscale>  0 0.91863688E+02</rscale>
<asrwt>0</asrwt>
<pdfrwt beam="1">  1        1 0.59143278E-02 0.91863688E+02</pdfrwt>
<pdfrwt beam="2">  1       -1 0.84429781E-02 0.91863688E+02</pdfrwt>
<totfact> 0.88219631E+04</totfact>
</mgrwt>
</event>
<event>
 7    1  0.3565607E-009  0.9511058E+02  0.7818608E-02  0.1290927E+00
         -1   -1    0    0    0  501 -0.00000000000E+00  0.00000000000E+00  0.48774935481E+01  0.48774961521E+01  0.50400000000E-02 0.  1.
          1   -1    0    0  501    0  0.00000000000E+00 -0.00000000000E+00 -0.46366134122E+03  0.46366134125E+03  0.50400000000E-02 0. -1.
         23    2    1    2    0    0 -0.88817841970E-15  0.71054273576E-14 -0.45878384767E+03  0.46853883740E+03  0.95110584411E+02 0.  0.
    9000005    2    3    3    0    0  0.47268385319E+01 -0.35599552415E+02 -0.38071889492E+03  0.38260975046E+03  0.12396493874E+02 0.  0.
         22    1    3    3    0    0 -0.47268385319E+01  0.35599552415E+02 -0.78064952747E+02  0.85929086938E+02  0.00000000000E+00 0.  1.
         22    1    4    4    0    0 -0.25381197025E+01 -0.20535891777E+02 -0.17695952074E+03  0.17816519549E+03  0.00000000000E+00 0. -1.
         22    1    4    4    0    0  0.72649582344E+01 -0.15063660638E+02 -0.20375937418E+03  0.20444455497E+03  0.00000000000E+00 0. -1.
<mgrwt>
<rscale>  0 0.95110584E+02</rscale>
<asrwt>0</asrwt>
<pdfrwt beam="2">  1        1 0.71332479E-01 0.95110584E+02</pdfrwt>
<pdfrwt beam="1">  1       -1 0.75038419E-03 0.95110584E+02</pdfrwt>
<totfact> 0.12328286E+05</totfact>
</mgrwt>
</event>
<event>
 7    1  0.3565607E-009  0.8891108E+02  0.7818608E-02  0.1305510E+00
         -1   -1    0    0    0  501 -0.00000000000E+00  0.00000000000E+00  0.35852476951E+01  0.35852512376E+01  0.50400000000E-02 0.  1.
          1   -1    0    0  501    0  0.00000000000E+00 -0.00000000000E+00 -0.55122945432E+03  0.55122945434E+03  0.50400000000E-02 0. -1.
         23    2    1    2    0    0  0.00000000000E+00  0.00000000000E+00 -0.54764420662E+03  0.55481470558E+03  0.88911081867E+02 0.  0.
    9000005    2    3    3    0    0 -0.18391936091E+02  0.24752987639E+02 -0.47241181064E+03  0.47350734358E+03  0.92364430418E+01 0.  0.
         22    1    3    3    0    0  0.18391936091E+02 -0.24752987639E+02 -0.75232395986E+02  0.81307362003E+02  0.00000000000E+00 0.  1.
         22    1    4    4    0    0 -0.59494986308E+01  0.14550710484E+02 -0.19720760124E+03  0.19783315621E+03  0.00000000000E+00 0. -1.
         22    1    4    4    0    0 -0.12442437460E+02  0.10202277154E+02 -0.27520420940E+03  0.27567418737E+03  0.00000000000E+00 0. -1.
<mgrwt>
<rscale>  0 0.88911082E+02</rscale>
<asrwt>0</asrwt>
<pdfrwt beam="2">  1        1 0.84804465E-01 0.88911082E+02</pdfrwt>
<pdfrwt beam="1">  1       -1 0.55157728E-03 0.88911082E+02</pdfrwt>
<totfact> 0.15036818E+05</totfact>
</mgrwt>
</event>
<event>
 7    1  0.3565607E-009  0.9139772E+02  0.7818608E-02  0.1299502E+00
          1   -1    0    0  501    0  0.00000000000E+00  0.00000000000E+00  0.22836088161E+03  0.22836088166E+03  0.50400000000E-02 0. -1.
         -1   -1    0    0    0  501 -0.00000000000E+00 -0.00000000000E+00 -0.91451110397E+01  0.91451124285E+01  0.50400000000E-02 0.  1.
         23    2    1    2    0    0  0.88817841970E-15  0.00000000000E+00  0.21921577057E+03  0.23750599409E+03  0.91397719686E+02 0.  0.
    9000005    2    3    3    0    0  0.62370484864E+01  0.33654737161E+02  0.18777430233E+03  0.19102903171E+03  0.78332772827E+01 0.  0.
         22    1    3    3    0    0 -0.62370484864E+01 -0.33654737161E+02  0.31441468231E+02  0.46476962376E+02  0.00000000000E+00 0.  1.
         22    1    4    4    0    0  0.46239649158E+01  0.69141352426E+01  0.43045567185E+02  0.43841842707E+02  0.00000000000E+00 0. -1.
         22    1    4    4    0    0  0.16130835707E+01  0.26740601918E+02  0.14472873515E+03  0.14718718901E+03  0.00000000000E+00 0. -1.
<mgrwt>
<rscale>  0 0.91397720E+02</rscale>
<asrwt>0</asrwt>
<pdfrwt beam="1">  1        1 0.35132445E-01 0.91397720E+02</pdfrwt>
<pdfrwt beam="2">  1       -1 0.14069402E-02 0.91397720E+02</pdfrwt>
<totfact> 0.12072029E+05</totfact>
</mgrwt>
</event>
<event>
 7    1  0.3565607E-009  0.8925903E+02  0.7818608E-02  0.1304656E+00
          1   -1    0    0  501    0  0.00000000000E+00  0.00000000000E+00  0.32940786780E+02  0.32940787166E+02  0.50400000000E-02 0. -1.
         -1   -1    0    0    0  501 -0.00000000000E+00 -0.00000000000E+00 -0.60465878893E+02  0.60465879103E+02  0.50400000000E-02 0.  1.
         23    2    1    2    0    0  0.17763568394E-14  0.00000000000E+00 -0.27525092113E+02  0.93406666269E+02  0.89259030959E+02 0.  0.
    9000005    2    3    3    0    0 -0.13715028530E+02  0.19911777757E+02 -0.52462439003E+02  0.58672645902E+02  0.10275746688E+02 0.  0.
         22    1    3    3    0    0  0.13715028530E+02 -0.19911777757E+02  0.24937346890E+02  0.34734020368E+02  0.00000000000E+00 0. -1.
         22    1    4    4    0    0 -0.13515499301E+02  0.16116425887E+02 -0.49719788604E+02  0.53985787792E+02  0.00000000000E+00 0. -1.
         22    1    4    4    0    0 -0.19952922871E+00  0.37953518697E+01 -0.27426503984E+01  0.46868581092E+01  0.00000000000E+00 0. -1.
<mgrwt>
<rscale>  0 0.89259031E+02</rscale>
<asrwt>0</asrwt>
<pdfrwt beam="1">  1        1 0.50678134E-02 0.89259031E+02</pdfrwt>
<pdfrwt beam="2">  1       -1 0.93024429E-02 0.89259031E+02</pdfrwt>
<totfact> 0.93475135E+04</totfact>
</mgrwt>
</event>
<event>
 7    1  0.3565607E-009  0.9142203E+02  0.7818608E-02  0.1299444E+00
          1   -1    0    0  501    0  0.00000000000E+00  0.00000000000E+00  0.21993605606E+03  0.21993605612E+03  0.50400000000E-02 0. -1.
         -1   -1    0    0    0  501 -0.00000000000E+00 -0.00000000000E+00 -0.95004734787E+01  0.95004748155E+01  0.50400000000E-02 0.  1.
         23    2    1    2    0    0  0.00000000000E+00  0.00000000000E+00  0.21043558258E+03  0.22943653093E+03  0.91422028584E+02 0.  0.
    9000005    2    3    3    0    0  0.25134466069E+02 -0.32129606324E+02  0.59816206134E+02  0.73390865987E+02  0.12007818576E+02 0.  0.
         22    1    3    3    0    0 -0.25134466069E+02  0.32129606324E+02  0.15061937645E+03  0.15604566495E+03  0.00000000000E+00 0. -1.
         22    1    4    4    0    0  0.17284521573E+02 -0.27146262305E+02  0.52417434594E+02  0.61508224593E+02  0.00000000000E+00 0. -1.
         22    1    4    4    0    0  0.78499444960E+01 -0.49833440188E+01  0.73987715395E+01  0.11882641394E+02  0.00000000000E+00 0. -1.
<mgrwt>
<rscale>  0 0.91422029E+02</rscale>
<asrwt>0</asrwt>
<pdfrwt beam="1">  1        1 0.33836314E-01 0.91422029E+02</pdfrwt>
<pdfrwt beam="2">  1       -1 0.14616115E-02 0.91422029E+02</pdfrwt>
<totfact> 0.11975152E+05</totfact>
</mgrwt>
</event>
<event>
 7    1  0.3565607E-009  0.9371063E+02  0.7818608E-02  0.1294107E+00
         -1   -1    0    0    0  501 -0.00000000000E+00  0.00000000000E+00  0.10119162798E+02  0.10119164053E+02  0.50400000000E-02 0.  1.
          1   -1    0    0  501    0  0.00000000000E+00 -0.00000000000E+00 -0.21695673136E+03  0.21695673142E+03  0.50400000000E-02 0. -1.
         23    2    1    2    0    0 -0.35527136788E-14  0.00000000000E+00 -0.20683756856E+03  0.22707589547E+03  0.93710631922E+02 0.  0.
    9000005    2    3    3    0    0 -0.30996065273E+02  0.25670754934E+02 -0.15830140174E+03  0.16402430381E+03  0.14996490444E+02 0.  0.
         22    1    3    3    0    0  0.30996065273E+02 -0.25670754934E+02 -0.48536166817E+02  0.63051591658E+02  0.00000000000E+00 0.  1.
         22    1    4    4    0    0 -0.10688952976E+02  0.63787583169E+00 -0.40804309020E+02  0.42185924618E+02  0.00000000000E+00 0. -1.
         22    1    4    4    0    0 -0.20307112297E+02  0.25032879103E+02 -0.11749709272E+03  0.12183837919E+03  0.00000000000E+00 0. -1.
<mgrwt>
<rscale>  0 0.93710632E+02</rscale>
<asrwt>0</asrwt>
<pdfrwt beam="2">  1        1 0.33377955E-01 0.93710632E+02</pdfrwt>
<pdfrwt beam="1">  1       -1 0.15567945E-02 0.93710632E+02</pdfrwt>
<totfact> 0.11176375E+05</totfact>
</mgrwt>
</event>
<event>
 7    1  0.3565607E-009  0.8861508E+02  0.7818608E-02  0.1306241E+00
          1   -1    0    0  501    0  0.00000000000E+00  0.00000000000E+00  0.32797882383E+02  0.32797882770E+02  0.50400000000E-02 0. -1.
         -1   -1    0    0    0  501 -0.00000000000E+00 -0.00000000000E+00 -0.59856245094E+02  0.59856245306E+02  0.50400000000E-02 0.  1.
         23    2    1    2    0    0  0.00000000000E+00  0.00000000000E+00 -0.27058362711E+02  0.92654128076E+02  0.88615080302E+02 0.  0.
    9000005    2    3    3    0    0 -0.83842270009E+01  0.21318194279E+02  0.25903689288E+02  0.34950232007E+02  0.50751284639E+01 0.  0.
         22    1    3    3    0    0  0.83842270009E+01 -0.21318194279E+02 -0.52962051998E+02  0.57703896069E+02  0.00000000000E+00 0.  1.
         22    1    4    4    0    0 -0.28855830692E+01  0.69762754693E+01  0.51833247231E+01  0.91576123667E+01  0.00000000000E+00 0. -1.
         22    1    4    4    0    0 -0.54986439317E+01  0.14341918809E+02  0.20720364565E+02  0.25792619640E+02  0.00000000000E+00 0. -1.
<mgrwt>
<rscale>  0 0.88615080E+02</rscale>
<asrwt>0</asrwt>
<pdfrwt beam="1">  1        1 0.50458281E-02 0.88615080E+02</pdfrwt>
<pdfrwt beam="2">  1       -1 0.92086531E-02 0.88615080E+02</pdfrwt>
<totfact> 0.95353341E+04</totfact>
</mgrwt>
</event>
<event>
 7    1  0.3565607E-009  0.9112080E+02  0.7818608E-02  0.1300160E+00
          1   -1    0    0  501    0  0.00000000000E+00  0.00000000000E+00  0.96965861933E+02  0.96965862064E+02  0.50400000000E-02 0. -1.
         -1   -1    0    0    0  501 -0.00000000000E+00 -0.00000000000E+00 -0.21407019243E+02  0.21407019836E+02  0.50400000000E-02 0.  1.
         23    2    1    2    0    0  0.00000000000E+00  0.00000000000E+00  0.75558842690E+02  0.11837288190E+03  0.91120801471E+02 0.  0.
    9000005    2    3    3    0    0  0.38951714682E+01 -0.42133749404E+02  0.19140143439E+02  0.47849872714E+02  0.11525624854E+02 0.  0.
         22    1    3    3    0    0 -0.38951714682E+01  0.42133749404E+02  0.56418699251E+02  0.70523009186E+02  0.00000000000E+00 0. -1.
         22    1    4    4    0    0  0.74027908667E+01 -0.17975884504E+02  0.81917546384E+01  0.21095937532E+02  0.00000000000E+00 0.  1.
         22    1    4    4    0    0 -0.35076193985E+01 -0.24157864900E+02  0.10948388801E+02  0.26753935182E+02  0.00000000000E+00 0.  1.
<mgrwt>
<rscale>  0 0.91120801E+02</rscale>
<asrwt>0</asrwt>
<pdfrwt beam="1">  1        1 0.14917825E-01 0.91120801E+02</pdfrwt>
<pdfrwt beam="2">  1       -1 0.32933877E-02 0.91120801E+02</pdfrwt>
<totfact> 0.10409463E+05</totfact>
</mgrwt>
</event>
<event>
 7    1  0.3565607E-009  0.9158062E+02  0.7818608E-02  0.1299069E+00
         -1   -1    0    0    0  501 -0.00000000000E+00  0.00000000000E+00  0.56502779010E+01  0.56502801488E+01  0.50400000000E-02 0.  1.
          1   -1    0    0  501    0  0.00000000000E+00 -0.00000000000E+00 -0.37108831068E+03  0.37108831071E+03  0.50400000000E-02 0. -1.
         23    2    1    2    0    0  0.71054273576E-14  0.88817841970E-15 -0.36543803278E+03  0.37673859086E+03  0.91580620461E+02 0.  0.
    9000005    2    3    3    0    0  0.42420180125E+02  0.52463822785E+01 -0.12646835812E+03  0.13397635818E+03  0.11332375644E+02 0.  0.
         22    1    3    3    0    0 -0.42420180125E+02 -0.52463822785E+01 -0.23896967466E+03  0.24276223268E+03  0.00000000000E+00 0. -1.
         22    1    4    4    0    0  0.38725357464E+02  0.37086344553E+01 -0.12161588723E+03  0.12768645703E+03  0.00000000000E+00 0. -1.
         22    1    4    4    0    0  0.36948226603E+01  0.15377478232E+01 -0.48524708825E+01  0.62899011538E+01  0.00000000000E+00 0. -1.
<mgrwt>
<rscale>  0 0.91580620E+02</rscale>
<asrwt>0</asrwt>
<pdfrwt beam="2">  1        1 0.57090491E-01 0.91580620E+02</pdfrwt>
<pdfrwt beam="1">  1       -1 0.86927399E-03 0.91580620E+02</pdfrwt>
<totfact> 0.13163657E+05</totfact>
</mgrwt>
</event>
<event>
 7    1  0.3565607E-009  0.8660064E+02  0.7818608E-02  0.1311299E+00
          1   -1    0    0  501    0  0.00000000000E+00  0.00000000000E+00  0.87968093162E+01  0.87968107600E+01  0.50400000000E-02 0. -1.
         -1   -1    0    0    0  501 -0.00000000000E+00 -0.00000000000E+00 -0.21313610270E+03  0.21313610276E+03  0.50400000000E-02 0.  1.
         23    2    1    2    0    0  0.00000000000E+00  0.00000000000E+00 -0.20433929339E+03  0.22193291352E+03  0.86600642509E+02 0.  0.
    9000005    2    3    3    0    0 -0.75883432033E+01  0.42108093496E+02 -0.11250205791E+03  0.12061779959E+03  0.78272635336E+01 0.  0.
         22    1    3    3    0    0  0.75883432033E+01 -0.42108093496E+02 -0.91837235478E+02  0.10131511393E+03  0.00000000000E+00 0. -1.
         22    1    4    4    0    0 -0.15770960018E+00  0.32146214845E-01 -0.40411515602E+01  0.40443555271E+01  0.00000000000E+00 0. -1.
         22    1    4    4    0    0 -0.74306336031E+01  0.42075947281E+02 -0.10846090635E+03  0.11657344407E+03  0.00000000000E+00 0. -1.
<mgrwt>
<rscale>  0 0.86600643E+02</rscale>
<asrwt>0</asrwt>
<pdfrwt beam="1">  1        1 0.13533556E-02 0.86600643E+02</pdfrwt>
<pdfrwt beam="2">  1       -1 0.32790166E-01 0.86600643E+02</pdfrwt>
<totfact> 0.77911196E+04</totfact>
</mgrwt>
</event>
<event>
 7    1  0.3565607E-009  0.9309681E+02  0.7818608E-02  0.1295521E+00
          1   -1    0    0  501    0  0.00000000000E+00  0.00000000000E+00  0.34246941141E+03  0.34246941145E+03  0.50400000000E-02 0. -1.
         -1   -1    0    0    0  501 -0.00000000000E+00 -0.00000000000E+00 -0.63268535958E+01  0.63268556033E+01  0.50400000000E-02 0.  1.
         23    2    1    2    0    0 -0.17763568394E-14  0.00000000000E+00  0.33614255782E+03  0.34879626705E+03  0.93096813772E+02 0.  0.
    9000005    2    3    3    0    0  0.81161436528E+01 -0.30843936668E+02  0.29307606652E+03  0.29520575587E+03  0.15350482414E+02 0.  0.
         22    1    3    3    0    0 -0.81161436528E+01  0.30843936668E+02  0.43066491292E+02  0.53590511186E+02  0.00000000000E+00 0.  1.
         22    1    4    4    0    0 -0.12006173175E+01 -0.23504952139E+02  0.19488426128E+03  0.19630027904E+03  0.00000000000E+00 0.  1.
         22    1    4    4    0    0  0.93167609703E+01 -0.73389845293E+01  0.98191805241E+02  0.98905476822E+02  0.00000000000E+00 0.  1.
<mgrwt>
<rscale>  0 0.93096814E+02</rscale>
<asrwt>0</asrwt>
<pdfrwt beam="1">  1        1 0.52687606E-01 0.93096814E+02</pdfrwt>
<pdfrwt beam="2">  1       -1 0.97336218E-03 0.93096814E+02</pdfrwt>
<totfact> 0.12422631E+05</totfact>
</mgrwt>
</event>
<event>
 7    1  0.3565607E-009  0.9036574E+02  0.7818608E-02  0.1301968E+00
          1   -1    0    0  501    0  0.00000000000E+00  0.00000000000E+00  0.16315070427E+03  0.16315070435E+03  0.50400000000E-02 0. -1.
         -1   -1    0    0    0  501 -0.00000000000E+00 -0.00000000000E+00 -0.12512919617E+02  0.12512920633E+02  0.50400000000E-02 0.  1.
         23    2    1    2    0    0  0.88817841970E-15  0.17763568394E-14  0.15063778466E+03  0.17566362498E+03  0.90365740059E+02 0.  0.
    9000005    2    3    3    0    0  0.63745685712E+01  0.13632049505E+02  0.15795783439E+03  0.15892889982E+03  0.90138700029E+01 0.  0.
         22    1    3    3    0    0 -0.63745685712E+01 -0.13632049505E+02 -0.73200497395E+01  0.16734725165E+02  0.00000000000E+00 0.  1.
         22    1    4    4    0    0 -0.14729249989E+01  0.16545720504E+01  0.46822173931E+02  0.46874546273E+02  0.00000000000E+00 0.  1.
         22    1    4    4    0    0  0.78474935701E+01  0.11977477454E+02  0.11113566046E+03  0.11205435354E+03  0.00000000000E+00 0.  1.
<mgrwt>
<rscale>  0 0.90365740E+02</rscale>
<asrwt>0</asrwt>
<pdfrwt beam="1">  1        1 0.25100110E-01 0.90365740E+02</pdfrwt>
<pdfrwt beam="2">  1       -1 0.19250645E-02 0.90365740E+02</pdfrwt>
<totfact> 0.11666402E+05</totfact>
</mgrwt>
</event>
<event>
 7    1  0.3565607E-009  0.9193041E+02  0.7818608E-02  0.1298243E+00
          1   -1    0    0  501    0  0.00000000000E+00  0.00000000000E+00  0.57758464258E+02  0.57758464478E+02  0.50400000000E-02 0.  1.
         -1   -1    0    0    0  501 -0.00000000000E+00 -0.00000000000E+00 -0.36579920237E+02  0.36579920584E+02  0.50400000000E-02 0. -1.
         23    2    1    2    0    0  0.00000000000E+00  0.00000000000E+00  0.21178544022E+02  0.94338385062E+02  0.91930409383E+02 0.  0.
    9000005    2    3    3    0    0 -0.11755133728E+02  0.28330263649E+01 -0.34161909334E+02  0.37692335024E+02  0.10366622541E+02 0.  0.
         22    1    3    3    0    0  0.11755133728E+02 -0.28330263649E+01  0.55340453355E+02  0.56646050038E+02  0.00000000000E+00 0.  1.
         22    1    4    4    0    0 -0.87142090195E+01  0.43624090950E+00 -0.10213397633E+02  0.13432841701E+02  0.00000000000E+00 0.  1.
         22    1    4    4    0    0 -0.30409247085E+01  0.23967854554E+01 -0.23948511701E+02  0.24259493323E+02  0.00000000000E+00 0.  1.
<mgrwt>
<rscale>  0 0.91930409E+02</rscale>
<asrwt>0</asrwt>
<pdfrwt beam="1">  1        1 0.88859176E-02 0.91930409E+02</pdfrwt>
<pdfrwt beam="2">  1       -1 0.56276801E-02 0.91930409E+02</pdfrwt>
<totfact> 0.93648955E+04</totfact>
</mgrwt>
</event>
<event>
 7    1  0.3565607E-009  0.9132507E+02  0.7818608E-02  0.1299674E+00
         -1   -1    0    0    0  501 -0.00000000000E+00  0.00000000000E+00  0.79364914387E+01  0.79364930390E+01  0.50400000000E-02 0.  1.
          1   -1    0    0  501    0  0.00000000000E+00 -0.00000000000E+00 -0.26271897119E+03  0.26271897124E+03  0.50400000000E-02 0. -1.
         23    2    1    2    0    0  0.00000000000E+00  0.00000000000E+00 -0.25478247975E+03  0.27065546428E+03  0.91325069696E+02 0.  0.
    9000005    2    3    3    0    0 -0.42717943138E+02  0.29887563889E+01 -0.17186594924E+03  0.17733394284E+03  0.86987036838E+01 0.  0.
         22    1    3    3    0    0  0.42717943138E+02 -0.29887563889E+01 -0.82916530518E+02  0.93321521440E+02  0.00000000000E+00 0.  1.
         22    1    4    4    0    0 -0.19590651259E+02  0.55449354118E+01 -0.85177489848E+02  0.87577078635E+02  0.00000000000E+00 0. -1.
         22    1    4    4    0    0 -0.23127291879E+02 -0.25561790230E+01 -0.86688459389E+02  0.89756864206E+02  0.00000000000E+00 0. -1.
<mgrwt>
<rscale>  0 0.91325070E+02</rscale>
<asrwt>0</asrwt>
<pdfrwt beam="2">  1        1 0.40418297E-01 0.91325070E+02</pdfrwt>
<pdfrwt beam="1">  1       -1 0.12209990E-02 0.91325070E+02</pdfrwt>
<totfact> 0.12433302E+05</totfact>
</mgrwt>
</event>
<event>
 7    1  0.3565607E-009  0.9226584E+02  0.7818608E-02  0.1297456E+00
         -1   -1    0    0    0  501 -0.00000000000E+00  0.00000000000E+00  0.19763613010E+03  0.19763613016E+03  0.50400000000E-02 0.  1.
          1   -1    0    0  501    0  0.00000000000E+00 -0.00000000000E+00 -0.10768506811E+02  0.10768507990E+02  0.50400000000E-02 0. -1.
         23    2    1    2    0    0 -0.44408920985E-15  0.00000000000E+00  0.18686762329E+03  0.20840463815E+03  0.92265836421E+02 0.  0.
    9000005    2    3    3    0    0  0.34235196241E+01 -0.24666395179E+02  0.18054999823E+03  0.18271292890E+03  0.12867050571E+02 0.  0.
         22    1    3    3    0    0 -0.34235196241E+01  0.24666395179E+02  0.63176250578E+01  0.25691709248E+02  0.00000000000E+00 0. -1.
         22    1    4    4    0    0  0.76215305703E+01 -0.15337869376E+02  0.92656181362E+02  0.94225824007E+02  0.00000000000E+00 0.  1.
         22    1    4    4    0    0 -0.41980109462E+01 -0.93285258032E+01  0.87893816868E+02  0.88487104898E+02  0.00000000000E+00 0.  1.
<mgrwt>
<rscale>  0 0.92265836E+02</rscale>
<asrwt>0</asrwt>
<pdfrwt beam="2">  1        1 0.16566935E-02 0.92265836E+02</pdfrwt>
<pdfrwt beam="1">  1       -1 0.30405558E-01 0.92265836E+02</pdfrwt>
<totfact> 0.67536017E+04</totfact>
</mgrwt>
</event>
<event>
 7    1  0.3565607E-009  0.9300241E+02  0.7818608E-02  0.1295740E+00
          1   -1    0    0  501    0  0.00000000000E+00  0.00000000000E+00  0.25140479960E+03  0.25140479965E+03  0.50400000000E-02 0. -1.
         -1   -1    0    0    0  501 -0.00000000000E+00 -0.00000000000E+00 -0.86011153222E+01  0.86011167988E+01  0.50400000000E-02 0.  1.
         23    2    1    2    0    0  0.35527136788E-14 -0.35527136788E-14  0.24280368428E+03  0.26000591645E+03  0.93002405829E+02 0.  0.
    9000005    2    3    3    0    0  0.31931115388E+02 -0.17090832130E+02  0.20077867302E+03  0.20452804479E+03  0.14420571857E+02 0.  0.
         22    1    3    3    0    0 -0.31931115388E+02  0.17090832130E+02  0.42025011258E+02  0.55477871661E+02  0.00000000000E+00 0.  1.
         22    1    4    4    0    0  0.12874153915E+00 -0.31655068469E+01  0.72792424542E+01  0.79387894977E+01  0.00000000000E+00 0.  1.
         22    1    4    4    0    0  0.31802373849E+02 -0.13925325283E+02  0.19349943057E+03  0.19658925529E+03  0.00000000000E+00 0.  1.
<mgrwt>
<rscale>  0 0.93002406E+02</rscale>
<asrwt>0</asrwt>
<pdfrwt beam="1">  1        1 0.38677660E-01 0.93002406E+02</pdfrwt>
<pdfrwt beam="2">  1       -1 0.13232487E-02 0.93002406E+02</pdfrwt>
<totfact> 0.11740859E+05</totfact>
</mgrwt>
</event>
<event>
 7    1  0.3565607E-009  0.9054502E+02  0.7818608E-02  0.1301537E+00
         -1   -1    0    0    0  501 -0.00000000000E+00  0.00000000000E+00  0.24852463205E+02  0.24852463717E+02  0.50400000000E-02 0.  1.
          1   -1    0    0  501    0  0.00000000000E+00 -0.00000000000E+00 -0.82470704611E+02  0.82470704765E+02  0.50400000000E-02 0. -1.
         23    2    1    2    0    0  0.00000000000E+00  0.00000000000E+00 -0.57618241405E+02  0.10732316848E+03  0.90545020571E+02 0.  0.
    9000005    2    3    3    0    0 -0.43918497517E+02 -0.91409758293E+01 -0.32249409551E+02  0.55787069551E+02  0.77318076442E+01 0.  0.
         22    1    3    3    0    0  0.43918497517E+02  0.91409758293E+01 -0.25368831854E+02  0.51536098930E+02  0.00000000000E+00 0. -1.
         22    1    4    4    0    0 -0.29610524481E+02 -0.93239832554E+01 -0.19803131543E+02  0.36822328046E+02  0.00000000000E+00 0. -1.
         22    1    4    4    0    0 -0.14307973036E+02  0.18300742608E+00 -0.12446278008E+02  0.18964741505E+02  0.00000000000E+00 0. -1.
<mgrwt>
<rscale>  0 0.90545021E+02</rscale>
<asrwt>0</asrwt>
<pdfrwt beam="2">  1        1 0.12687801E-01 0.90545021E+02</pdfrwt>
<pdfrwt beam="1">  1       -1 0.38234560E-02 0.90545021E+02</pdfrwt>
<totfact> 0.10317725E+05</totfact>
</mgrwt>
</event>
<event>
 7    1  0.3565607E-009  0.9250407E+02  0.7818608E-02  0.1296899E+00
          1   -1    0    0  501    0  0.00000000000E+00  0.00000000000E+00  0.15539005484E+02  0.15539006302E+02  0.50400000000E-02 0. -1.
         -1   -1    0    0    0  501 -0.00000000000E+00 -0.00000000000E+00 -0.13766972332E+03  0.13766972341E+03  0.50400000000E-02 0.  1.
         23    2    1    2    0    0 -0.71054273576E-14  0.00000000000E+00 -0.12213071783E+03  0.15320872971E+03  0.92504068134E+02 0.  0.
    9000005    2    3    3    0    0  0.40757899204E+02 -0.15878052805E+02 -0.81354031357E+02  0.93408587000E+02  0.13905639100E+02 0.  0.
         22    1    3    3    0    0 -0.40757899204E+02  0.15878052805E+02 -0.40776686477E+02  0.59800142713E+02  0.00000000000E+00 0.  1.
         22    1    4    4    0    0  0.34953263424E+02 -0.11845875943E+02 -0.76181490379E+02  0.84650309375E+02  0.00000000000E+00 0. -1.
         22    1    4    4    0    0  0.58046357805E+01 -0.40321768613E+01 -0.51725409779E+01  0.87582776248E+01  0.00000000000E+00 0. -1.
<mgrwt>
<rscale>  0 0.92504068E+02</rscale>
<asrwt>0</asrwt>
<pdfrwt beam="1">  1        1 0.23906164E-02 0.92504068E+02</pdfrwt>
<pdfrwt beam="2">  1       -1 0.21179957E-01 0.92504068E+02</pdfrwt>
<totfact> 0.73457878E+04</totfact>
</mgrwt>
</event>
<event>
 7    1  0.4056009E-009  0.9117715E+02  0.7818608E-02  0.1300026E+00
          1   -1    0    0  501    0  0.00000000000E+00  0.00000000000E+00  0.39552062240E+02  0.39552062561E+02  0.50400000000E-02 0. -1.
         -1   -1    0    0    0  501 -0.00000000000E+00 -0.00000000000E+00 -0.52546388093E+02  0.52546388335E+02  0.50400000000E-02 0.  1.
         23    2    1    2    0    0 -0.17763568394E-14 -0.11102230246E-15 -0.12994325853E+02  0.92098450896E+02  0.91177147099E+02 0.  0.
    9000005    2    3    3    0    0 -0.13333450931E+02 -0.95834091175E+00 -0.49908552809E+02  0.52838299562E+02  0.11059969535E+02 0.  0.
         22    1    3    3    0    0  0.13333450931E+02  0.95834091175E+00  0.36914226956E+02  0.39260151334E+02  0.00000000000E+00 0. -1.
         22    1    4    4    0    0 -0.14195135627E+02 -0.34163866488E-01 -0.33529515723E+02  0.36410595535E+02  0.00000000000E+00 0. -1.
         22    1    4    4    0    0  0.86168469558E+00 -0.92417704526E+00 -0.16379037086E+02  0.16427704027E+02  0.00000000000E+00 0. -1.
<mgrwt>
<rscale>  0 0.91177147E+02</rscale>
<asrwt>0</asrwt>
<pdfrwt beam="1">  1        1 0.60849327E-02 0.91177147E+02</pdfrwt>
<pdfrwt beam="2">  1       -1 0.80840598E-02 0.91177147E+02</pdfrwt>
<totfact> 0.90507697E+04</totfact>
</mgrwt>
</event>
<event>
 7    1  0.3565607E-009  0.8157711E+02  0.7818608E-02  0.1324634E+00
          1   -1    0    0  501    0  0.00000000000E+00  0.00000000000E+00  0.34393862300E+02  0.34393862670E+02  0.50400000000E-02 0. -1.
         -1   -1    0    0    0  501 -0.00000000000E+00 -0.00000000000E+00 -0.48372179777E+02  0.48372180039E+02  0.50400000000E-02 0.  1.
         23    2    1    2    0    0 -0.17763568394E-14  0.00000000000E+00 -0.13978317476E+02  0.82766042709E+02  0.81577107489E+02 0.  0.
    9000005    2    3    3    0    0 -0.10023213130E+02 -0.37609488087E+02 -0.16050797922E+02  0.43788695816E+02  0.12036750880E+02 0.  0.
         22    1    3    3    0    0  0.10023213130E+02  0.37609488087E+02  0.20724804455E+01  0.38977346893E+02  0.00000000000E+00 0. -1.
         22    1    4    4    0    0 -0.10834594541E+02 -0.20220037311E+02 -0.61001977473E+01  0.23737117776E+02  0.00000000000E+00 0. -1.
         22    1    4    4    0    0  0.81138141162E+00 -0.17389450776E+02 -0.99506001746E+01  0.20051578041E+02  0.00000000000E+00 0. -1.
<mgrwt>
<rscale>  0 0.81577107E+02</rscale>
<asrwt>0</asrwt>
<pdfrwt beam="1">  1        1 0.52913635E-02 0.81577107E+02</pdfrwt>
<pdfrwt beam="2">  1       -1 0.74418738E-02 0.81577107E+02</pdfrwt>
<totfact> 0.12119621E+05</totfact>
</mgrwt>
</event>
<event>
 7    1  0.3565607E-009  0.9197234E+02  0.7818608E-02  0.1298144E+00
         -1   -1    0    0    0  501 -0.00000000000E+00  0.00000000000E+00  0.18938243444E+03  0.18938243450E+03  0.50400000000E-02 0.  1.
          1   -1    0    0  501    0  0.00000000000E+00 -0.00000000000E+00 -0.11166439541E+02  0.11166440678E+02  0.50400000000E-02 0. -1.
         23    2    1    2    0    0  0.00000000000E+00  0.00000000000E+00  0.17821599489E+03  0.20054887518E+03  0.91972335514E+02 0.  0.
    9000005    2    3    3    0    0  0.30438490708E+02 -0.32682769940E+02  0.89323596427E+02  0.10106760220E+03  0.15533517609E+02 0.  0.
         22    1    3    3    0    0 -0.30438490708E+02  0.32682769940E+02  0.88892398468E+02  0.99481272976E+02  0.00000000000E+00 0. -1.
         22    1    4    4    0    0  0.62071778491E+01 -0.74985153495E+01  0.81695175774E+01  0.12708178734E+02  0.00000000000E+00 0. -1.
         22    1    4    4    0    0  0.24231312859E+02 -0.25184254590E+02  0.81154078849E+02  0.88359423470E+02  0.00000000000E+00 0. -1.
<mgrwt>
<rscale>  0 0.91972336E+02</rscale>
<asrwt>0</asrwt>
<pdfrwt beam="2">  1        1 0.17179140E-02 0.91972336E+02</pdfrwt>
<pdfrwt beam="1">  1       -1 0.29135757E-01 0.91972336E+02</pdfrwt>
<totfact> 0.68916711E+04</totfact>
</mgrwt>
</event>
<event>
 7    1  0.3565607E-009  0.8856102E+02  0.7818608E-02  0.1306374E+00
         -1   -1    0    0    0  501 -0.00000000000E+00  0.00000000000E+00  0.69199711476E+03  0.69199711478E+03  0.50400000000E-02 0.  1.
          1   -1    0    0  501    0  0.00000000000E+00 -0.00000000000E+00 -0.28334828511E+01  0.28334873335E+01  0.50400000000E-02 0. -1.
         23    2    1    2    0    0  0.00000000000E+00  0.88817841970E-15  0.68916363191E+03  0.69483060211E+03  0.88561018994E+02 0.  0.
    9000005    2    3    3    0    0 -0.23014767377E+02 -0.54868323524E+01  0.63687599928E+03  0.63743912738E+03  0.12562555529E+02 0.  0.
         22    1    3    3    0    0  0.23014767377E+02  0.54868323524E+01  0.52287632630E+02  0.57391474740E+02  0.00000000000E+00 0. -1.
         22    1    4    4    0    0 -0.11981481810E+02  0.35795357153E+01  0.29268694513E+03  0.29295395002E+03  0.00000000000E+00 0.  1.
         22    1    4    4    0    0 -0.11033285567E+02 -0.90663680677E+01  0.34418905415E+03  0.34448517736E+03  0.00000000000E+00 0.  1.
<mgrwt>
<rscale>  0 0.88561019E+02</rscale>
<asrwt>0</asrwt>
<pdfrwt beam="2">  1        1 0.43592054E-03 0.88561019E+02</pdfrwt>
<pdfrwt beam="1">  1       -1 0.10646116E+00 0.88561019E+02</pdfrwt>
<totfact> 0.40157805E+04</totfact>
</mgrwt>
</event>
<event>
 7    1  0.3565607E-009  0.9300553E+02  0.7818608E-02  0.1295732E+00
         -1   -1    0    0    0  501 -0.00000000000E+00  0.00000000000E+00  0.14662875632E+02  0.14662876498E+02  0.50400000000E-02 0.  1.
          1   -1    0    0  501    0  0.00000000000E+00 -0.00000000000E+00 -0.14748179983E+03  0.14748179992E+03  0.50400000000E-02 0. -1.
         23    2    1    2    0    0 -0.71054273576E-14  0.00000000000E+00 -0.13281892420E+03  0.16214467642E+03  0.93005534591E+02 0.  0.
    9000005    2    3    3    0    0  0.36285700748E+02 -0.24408938432E+02 -0.40786699096E+02  0.60250717755E+02  0.73583838287E+01 0.  0.
         22    1    3    3    0    0 -0.36285700748E+02  0.24408938432E+02 -0.92032225105E+02  0.10189395866E+03  0.00000000000E+00 0. -1.
         22    1    4    4    0    0  0.12614910535E+02 -0.49629963346E+01 -0.10236923371E+02  0.16987109835E+02  0.00000000000E+00 0.  1.
         22    1    4    4    0    0  0.23670790213E+02 -0.19445942098E+02 -0.30549775725E+02  0.43263607920E+02  0.00000000000E+00 0.  1.
<mgrwt>
<rscale>  0 0.93005535E+02</rscale>
<asrwt>0</asrwt>
<pdfrwt beam="2">  1        1 0.22689507E-01 0.93005535E+02</pdfrwt>
<pdfrwt beam="1">  1       -1 0.22558272E-02 0.93005535E+02</pdfrwt>
<totfact> 0.10594032E+05</totfact>
</mgrwt>
</event>
<event>
 7    1  0.3565607E-009  0.8862682E+02  0.7818608E-02  0.1306212E+00
         -1   -1    0    0    0  501 -0.00000000000E+00  0.00000000000E+00  0.85078770372E+02  0.85078770521E+02  0.50400000000E-02 0.  1.
          1   -1    0    0  501    0  0.00000000000E+00 -0.00000000000E+00 -0.23080709208E+02  0.23080709759E+02  0.50400000000E-02 0. -1.
         23    2    1    2    0    0  0.22204460493E-15  0.00000000000E+00  0.61998061164E+02  0.10815948028E+03  0.88626822048E+02 0.  0.
    9000005    2    3    3    0    0 -0.10708945724E+01  0.39119243254E+02  0.86088427525E+01  0.41963780642E+02  0.12465340119E+02 0.  0.
         22    1    3    3    0    0  0.10708945724E+01 -0.39119243254E+02  0.53389218411E+02  0.66195699638E+02  0.00000000000E+00 0.  1.
         22    1    4    4    0    0 -0.19442670297E+01  0.19245179466E+02 -0.19514447248E+01  0.19441328233E+02  0.00000000000E+00 0. -1.
         22    1    4    4    0    0  0.87337245735E+00  0.19874063788E+02  0.10560287477E+02  0.22522452409E+02  0.00000000000E+00 0. -1.
<mgrwt>
<rscale>  0 0.88626822E+02</rscale>
<asrwt>0</asrwt>
<pdfrwt beam="2">  1        1 0.35508783E-02 0.88626822E+02</pdfrwt>
<pdfrwt beam="1">  1       -1 0.13089042E-01 0.88626822E+02</pdfrwt>
<totfact> 0.90075801E+04</totfact>
</mgrwt>
</event>
<event>
 7    1  0.3565607E-009  0.9336083E+02  0.7818608E-02  0.1294911E+00
          1   -1    0    0  501    0  0.00000000000E+00  0.00000000000E+00  0.53684646025E+02  0.53684646262E+02  0.50400000000E-02 0. -1.
         -1   -1    0    0    0  501 -0.00000000000E+00 -0.00000000000E+00 -0.40590022763E+02  0.40590023076E+02  0.50400000000E-02 0.  1.
         23    2    1    2    0    0  0.00000000000E+00  0.00000000000E+00  0.13094623263E+02  0.94274669338E+02  0.93360827547E+02 0.  0.
    9000005    2    3    3    0    0  0.44491957236E+02 -0.11613846860E+02  0.61919044264E+01  0.47776677716E+02  0.11395418183E+02 0.  0.
         22    1    3    3    0    0 -0.44491957236E+02  0.11613846860E+02  0.69027188363E+01  0.46497991622E+02  0.00000000000E+00 0. -1.
         22    1    4    4    0    0  0.16868455869E+02 -0.65365290407E+01  0.76748376553E+01  0.19651314163E+02  0.00000000000E+00 0.  1.
         22    1    4    4    0    0  0.27623501367E+02 -0.50773178196E+01 -0.14829332289E+01  0.28125363553E+02  0.00000000000E+00 0.  1.
<mgrwt>
<rscale>  0 0.93360828E+02</rscale>
<asrwt>0</asrwt>
<pdfrwt beam="1">  1        1 0.82591764E-02 0.93360828E+02</pdfrwt>
<pdfrwt beam="2">  1       -1 0.62446189E-02 0.93360828E+02</pdfrwt>
<totfact> 0.88704496E+04</totfact>
</mgrwt>
</event>
<event>
 7    1  0.3565607E-009  0.8863679E+02  0.7818608E-02  0.1306187E+00
         -1   -1    0    0    0  501 -0.00000000000E+00  0.00000000000E+00  0.21710492386E+01  0.21710550887E+01  0.50400000000E-02 0.  1.
          1   -1    0    0  501    0  0.00000000000E+00 -0.00000000000E+00 -0.90468589948E+03  0.90468589949E+03  0.50400000000E-02 0. -1.
         23    2    1    2    0    0  0.00000000000E+00  0.00000000000E+00 -0.90251485024E+03  0.90685695458E+03  0.88636793539E+02 0.  0.
    9000005    2    3    3    0    0  0.30372508549E+02  0.16209201832E+02 -0.72971777655E+03  0.73066371926E+03  0.14007487998E+02 0.  0.
         22    1    3    3    0    0 -0.30372508549E+02 -0.16209201832E+02 -0.17279707368E+03  0.17619323532E+03  0.00000000000E+00 0.  1.
         22    1    4    4    0    0  0.10385050669E+01  0.16755137142E+01 -0.95027868880E+01  0.97050913247E+01  0.00000000000E+00 0.  1.
         22    1    4    4    0    0  0.29334003482E+02  0.14533688118E+02 -0.72021498967E+03  0.72095862793E+03  0.00000000000E+00 0.  1.
<mgrwt>
<rscale>  0 0.88636794E+02</rscale>
<asrwt>0</asrwt>
<pdfrwt beam="2">  1        1 0.13918215E+00 0.88636794E+02</pdfrwt>
<pdfrwt beam="1">  1       -1 0.33400875E-03 0.88636794E+02</pdfrwt>
<totfact> 0.14981777E+05</totfact>
</mgrwt>
</event>
<event>
 7    1  0.3565607E-009  0.9002820E+02  0.7818608E-02  0.1302783E+00
          1   -1    0    0  501    0  0.00000000000E+00  0.00000000000E+00  0.38586077318E+03  0.38586077321E+03  0.50400000000E-02 0. -1.
         -1   -1    0    0    0  501 -0.00000000000E+00 -0.00000000000E+00 -0.52512945677E+01  0.52512969863E+01  0.50400000000E-02 0.  1.
         23    2    1    2    0    0  0.35527136788E-14  0.00000000000E+00  0.38060947861E+03  0.39111207020E+03  0.90028196949E+02 0.  0.
    9000005    2    3    3    0    0  0.31212238031E+02 -0.32014898500E+02  0.20728302665E+03  0.21211146551E+03  0.50855811016E+01 0.  0.
         22    1    3    3    0    0 -0.31212238031E+02  0.32014898500E+02  0.17332645196E+03  0.17900060468E+03  0.00000000000E+00 0.  1.
         22    1    4    4    0    0  0.24916418597E+02 -0.22386861039E+02  0.15400946126E+03  0.15761000483E+03  0.00000000000E+00 0. -1.
         22    1    4    4    0    0  0.62958194339E+01 -0.96280374610E+01  0.53273565391E+02  0.54501460688E+02  0.00000000000E+00 0. -1.
<mgrwt>
<rscale>  0 0.90028197E+02</rscale>
<asrwt>0</asrwt>
<pdfrwt beam="1">  1        1 0.59363229E-01 0.90028197E+02</pdfrwt>
<pdfrwt beam="2">  1       -1 0.80789121E-03 0.90028197E+02</pdfrwt>
<totfact> 0.13867400E+05</totfact>
</mgrwt>
</event>
<event>
 7    1  0.3565607E-009  0.9569483E+02  0.7818608E-02  0.1289619E+00
          1   -1    0    0  501    0  0.00000000000E+00  0.00000000000E+00  0.12327512548E+04  0.12327512548E+04  0.50400000000E-02 0.  1.
         -1   -1    0    0    0  501 -0.00000000000E+00 -0.00000000000E+00 -0.18571231096E+01  0.18571299486E+01  0.50400000000E-02 0. -1.
         23    2    1    2    0    0  0.00000000000E+00  0.00000000000E+00  0.12308941317E+04  0.12346083848E+04  0.95694828947E+02 0.  0.
    9000005    2    3    3    0    0  0.33625284353E+02 -0.52775474315E+01  0.10461316696E+04  0.10467369403E+04  0.10403833040E+02 0.  0.
         22    1    3    3    0    0 -0.33625284353E+02  0.52775474315E+01  0.18476246209E+03  0.18787144448E+03  0.00000000000E+00 0. -1.
         22    1    4    4    0    0  0.14065630230E+02 -0.62000711692E+01  0.36430308976E+03  0.36462723985E+03  0.00000000000E+00 0. -1.
         22    1    4    4    0    0  0.19559654123E+02  0.92252373772E+00  0.68182857985E+03  0.68210970043E+03  0.00000000000E+00 0. -1.
<mgrwt>
<rscale>  0 0.95694829E+02</rscale>
<asrwt>0</asrwt>
<pdfrwt beam="1">  1        1 0.18965428E+00 0.95694829E+02</pdfrwt>
<pdfrwt beam="2">  1       -1 0.28571141E-03 0.95694829E+02</pdfrwt>
<totfact> 0.11052435E+05</totfact>
</mgrwt>
</event>
<event>
 7    1  0.3565607E-009  0.9217057E+02  0.7818608E-02  0.1297679E+00
         -1   -1    0    0    0  501 -0.00000000000E+00  0.00000000000E+00  0.18813312934E+02  0.18813313609E+02  0.50400000000E-02 0.  1.
          1   -1    0    0  501    0  0.00000000000E+00 -0.00000000000E+00 -0.11289098287E+03  0.11289098298E+03  0.50400000000E-02 0. -1.
         23    2    1    2    0    0  0.00000000000E+00  0.00000000000E+00 -0.94077669934E+02  0.13170429659E+03  0.92170568838E+02 0.  0.
    9000005    2    3    3    0    0 -0.20366242932E+02  0.39545862306E+02 -0.61133816440E+02  0.76351278969E+02  0.10654351735E+02 0.  0.
         22    1    3    3    0    0  0.20366242932E+02 -0.39545862306E+02 -0.32943853494E+02  0.55353017621E+02  0.00000000000E+00 0.  1.
         22    1    4    4    0    0 -0.14599817368E+02  0.23519355635E+02 -0.45342192907E+02  0.53124657310E+02  0.00000000000E+00 0. -1.
         22    1    4    4    0    0 -0.57664255632E+01  0.16026506671E+02 -0.15791623533E+02  0.23226621658E+02  0.00000000000E+00 0. -1.
<mgrwt>
<rscale>  0 0.92170569E+02</rscale>
<asrwt>0</asrwt>
<pdfrwt beam="2">  1        1 0.17367843E-01 0.92170569E+02</pdfrwt>
<pdfrwt beam="1">  1       -1 0.28943560E-02 0.92170569E+02</pdfrwt>
<totfact> 0.10351201E+05</totfact>
</mgrwt>
</event>
<event>
 7    1  0.3565607E-009  0.8386981E+02  0.7818608E-02  0.1318415E+00
         -1   -1    0    0    0  501 -0.00000000000E+00  0.00000000000E+00  0.90113838091E+01  0.90113852186E+01  0.50400000000E-02 0.  1.
          1   -1    0    0  501    0  0.00000000000E+00 -0.00000000000E+00 -0.19514606526E+03  0.19514606533E+03  0.50400000000E-02 0. -1.
         23    2    1    2    0    0  0.00000000000E+00  0.00000000000E+00 -0.18613468145E+03  0.20415745055E+03  0.83869809668E+02 0.  0.
    9000005    2    3    3    0    0 -0.41430901082E+01 -0.32172040596E+02 -0.15765217679E+03  0.16098965625E+03  0.33548746878E+01 0.  0.
         22    1    3    3    0    0  0.41430901082E+01  0.32172040596E+02 -0.28482504667E+02  0.43167794291E+02  0.00000000000E+00 0.  1.
         22    1    4    4    0    0 -0.61949571770E+00 -0.13707332218E+02 -0.72542276435E+02  0.73828562236E+02  0.00000000000E+00 0.  1.
         22    1    4    4    0    0 -0.35235943905E+01 -0.18464708378E+02 -0.85109900350E+02  0.87161094019E+02  0.00000000000E+00 0.  1.
<mgrwt>
<rscale>  0 0.83869810E+02</rscale>
<asrwt>0</asrwt>
<pdfrwt beam="2">  1        1 0.30022469E-01 0.83869810E+02</pdfrwt>
<pdfrwt beam="1">  1       -1 0.13863670E-02 0.83869810E+02</pdfrwt>
<totfact> 0.14727986E+05</totfact>
</mgrwt>
</event>
<event>
 7    1  0.3565607E-009  0.8891417E+02  0.7818608E-02  0.1305503E+00
          1   -1    0    0  501    0  0.00000000000E+00  0.00000000000E+00  0.12292959323E+04  0.12292959323E+04  0.50400000000E-02 0. -1.
         -1   -1    0    0    0  501 -0.00000000000E+00 -0.00000000000E+00 -0.16077721028E+01  0.16077800024E+01  0.50400000000E-02 0.  1.
         23    2    1    2    0    0  0.33306690739E-15  0.00000000000E+00  0.12276881602E+04  0.12309037123E+04  0.88914173769E+02 0.  0.
    9000005    2    3    3    0    0 -0.65308073301E+00  0.23144824376E+02  0.11371364513E+04  0.11374386312E+04  0.12297210332E+02 0.  0.
         22    1    3    3    0    0  0.65308073301E+00 -0.23144824376E+02  0.90551708920E+02  0.93465081170E+02  0.00000000000E+00 0.  1.
         22    1    4    4    0    0 -0.59960040611E+01  0.73651611105E+01  0.45060876202E+03  0.45070883514E+03  0.00000000000E+00 0. -1.
         22    1    4    4    0    0  0.53429233281E+01  0.15779663266E+02  0.68652768928E+03  0.68672979602E+03  0.00000000000E+00 0. -1.
<mgrwt>
<rscale>  0 0.88914174E+02</rscale>
<asrwt>0</asrwt>
<pdfrwt beam="1">  1        1 0.18912288E+00 0.88914174E+02</pdfrwt>
<pdfrwt beam="2">  1       -1 0.24734960E-03 0.88914174E+02</pdfrwt>
<totfact> 0.13445593E+05</totfact>
</mgrwt>
</event>
<event>
 7    1  0.3565607E-009  0.9315268E+02  0.7818608E-02  0.1295392E+00
         -1   -1    0    0    0  501 -0.00000000000E+00  0.00000000000E+00  0.12355482479E+02  0.12355483507E+02  0.50400000000E-02 0.  1.
          1   -1    0    0  501    0  0.00000000000E+00 -0.00000000000E+00 -0.17557835668E+03  0.17557835675E+03  0.50400000000E-02 0. -1.
         23    2    1    2    0    0  0.00000000000E+00  0.00000000000E+00 -0.16322287420E+03  0.18793384026E+03  0.93152679255E+02 0.  0.
    9000005    2    3    3    0    0 -0.23536826875E+02 -0.11830809865E+02 -0.66311664825E+01  0.29141796355E+02  0.10550907281E+02 0.  0.
         22    1    3    3    0    0  0.23536826875E+02  0.11830809865E+02 -0.15659170772E+03  0.15879204390E+03  0.00000000000E+00 0. -1.
         22    1    4    4    0    0 -0.11919579457E+02 -0.93236728210E+01  0.74993437836E+00  0.15151556055E+02  0.00000000000E+00 0. -1.
         22    1    4    4    0    0 -0.11617247418E+02 -0.25071370435E+01 -0.73811008608E+01  0.13990240300E+02  0.00000000000E+00 0. -1.
<mgrwt>
<rscale>  0 0.93152679E+02</rscale>
<asrwt>0</asrwt>
<pdfrwt beam="2">  1        1 0.27012053E-01 0.93152679E+02</pdfrwt>
<pdfrwt beam="1">  1       -1 0.19008437E-02 0.93152679E+02</pdfrwt>
<totfact> 0.10899719E+05</totfact>
</mgrwt>
</event>
<event>
 7    1  0.3565607E-009  0.8597730E+02  0.7818608E-02  0.1312896E+00
          1   -1    0    0  501    0  0.00000000000E+00  0.00000000000E+00  0.62286563708E+01  0.62286584099E+01  0.50400000000E-02 0. -1.
         -1   -1    0    0    0  501 -0.00000000000E+00 -0.00000000000E+00 -0.29669701207E+03  0.29669701211E+03  0.50400000000E-02 0.  1.
         23    2    1    2    0    0  0.00000000000E+00  0.00000000000E+00 -0.29046835569E+03  0.30292567052E+03  0.85977300486E+02 0.  0.
    9000005    2    3    3    0    0 -0.26512561264E+02 -0.32246288107E+02 -0.17978042184E+03  0.18462707500E+03  0.48391882786E+01 0.  0.
         22    1    3    3    0    0  0.26512561264E+02  0.32246288107E+02 -0.11068793385E+03  0.11829859552E+03  0.00000000000E+00 0. -1.
         22    1    4    4    0    0 -0.23683411478E+01 -0.54935487430E+01 -0.24478099662E+02  0.25198521398E+02  0.00000000000E+00 0.  1.
         22    1    4    4    0    0 -0.24144220116E+02 -0.26752739364E+02 -0.15530232218E+03  0.15942855360E+03  0.00000000000E+00 0.  1.
<mgrwt>
<rscale>  0 0.85977300E+02</rscale>
<asrwt>0</asrwt>
<pdfrwt beam="1">  1        1 0.95825522E-03 0.85977300E+02</pdfrwt>
<pdfrwt beam="2">  1       -1 0.45645683E-01 0.85977300E+02</pdfrwt>
<totfact> 0.70920791E+04</totfact>
</mgrwt>
</event>
<event>
 7    1  0.3565607E-009  0.9081093E+02  0.7818608E-02  0.1300900E+00
         -1   -1    0    0    0  501 -0.00000000000E+00  0.00000000000E+00  0.36677572197E+03  0.36677572201E+03  0.50400000000E-02 0.  1.
          1   -1    0    0  501    0  0.00000000000E+00 -0.00000000000E+00 -0.56210254790E+01  0.56210277385E+01  0.50400000000E-02 0. -1.
         23    2    1    2    0    0  0.00000000000E+00  0.00000000000E+00  0.36115469650E+03  0.37239674975E+03  0.90810926776E+02 0.  0.
    9000005    2    3    3    0    0 -0.38316205692E+02  0.23451544622E+02  0.20202802880E+03  0.20705043761E+03  0.60376098052E+01 0.  0.
         22    1    3    3    0    0  0.38316205692E+02 -0.23451544622E+02  0.15912666770E+03  0.16534631214E+03  0.00000000000E+00 0. -1.
         22    1    4    4    0    0 -0.23995015838E+02  0.16506936206E+02  0.14138115712E+03  0.14434982271E+03  0.00000000000E+00 0. -1.
         22    1    4    4    0    0 -0.14321189855E+02  0.69446084163E+01  0.60646871681E+02  0.62700614906E+02  0.00000000000E+00 0. -1.
<mgrwt>
<rscale>  0 0.90810927E+02</rscale>
<asrwt>0</asrwt>
<pdfrwt beam="2">  1        1 0.86477325E-03 0.90810927E+02</pdfrwt>
<pdfrwt beam="1">  1       -1 0.56427040E-01 0.90810927E+02</pdfrwt>
<totfact> 0.56172633E+04</totfact>
</mgrwt>
</event>
<event>
 7    1  0.3565607E-009  0.9078168E+02  0.7818608E-02  0.1300970E+00
         -1   -1    0    0    0  501 -0.00000000000E+00  0.00000000000E+00  0.14919634257E+03  0.14919634265E+03  0.50400000000E-02 0.  1.
          1   -1    0    0  501    0  0.00000000000E+00 -0.00000000000E+00 -0.13809509128E+02  0.13809510047E+02  0.50400000000E-02 0. -1.
         23    2    1    2    0    0  0.00000000000E+00  0.00000000000E+00  0.13538683344E+03  0.16300585270E+03  0.90781679571E+02 0.  0.
    9000005    2    3    3    0    0 -0.14709896711E+02  0.32245200078E+02  0.11725148267E+03  0.12319348105E+03  0.13137335885E+02 0.  0.
         22    1    3    3    0    0  0.14709896711E+02 -0.32245200078E+02  0.18135350770E+02  0.39812371656E+02  0.00000000000E+00 0. -1.
         22    1    4    4    0    0 -0.55242244153E+01  0.26053419773E+02  0.78863627409E+02  0.83239230326E+02  0.00000000000E+00 0.  1.
         22    1    4    4    0    0 -0.91856722956E+01  0.61917803052E+01  0.38387855263E+02  0.39954250720E+02  0.00000000000E+00 0.  1.
<mgrwt>
<rscale>  0 0.90781680E+02</rscale>
<asrwt>0</asrwt>
<pdfrwt beam="2">  1        1 0.21245397E-02 0.90781680E+02</pdfrwt>
<pdfrwt beam="1">  1       -1 0.22953286E-01 0.90781680E+02</pdfrwt>
<totfact> 0.75731041E+04</totfact>
</mgrwt>
</event>
<event>
 7    1  0.3565607E-009  0.9379780E+02  0.7818608E-02  0.1293907E+00
          1   -1    0    0  501    0  0.00000000000E+00  0.00000000000E+00  0.32614165378E+03  0.32614165382E+03  0.50400000000E-02 0. -1.
         -1   -1    0    0    0  501 -0.00000000000E+00 -0.00000000000E+00 -0.67440223160E+01  0.67440241993E+01  0.50400000000E-02 0.  1.
         23    2    1    2    0    0  0.71054273576E-14  0.00000000000E+00  0.31939763146E+03  0.33288567802E+03  0.93797801919E+02 0.  0.
    9000005    2    3    3    0    0 -0.40562128219E+02 -0.43440574805E+01  0.79143770759E+02  0.89193095725E+02  0.52454546016E+01 0.  0.
         22    1    3    3    0    0  0.40562128219E+02  0.43440574805E+01  0.24025386071E+03  0.24369258229E+03  0.00000000000E+00 0. -1.
         22    1    4    4    0    0 -0.11443862668E+02 -0.35749763435E+01  0.22097343501E+02  0.25140307047E+02  0.00000000000E+00 0. -1.
         22    1    4    4    0    0 -0.29118265552E+02 -0.76908113708E+00  0.57046427258E+02  0.64052788678E+02  0.00000000000E+00 0. -1.
<mgrwt>
<rscale>  0 0.93797802E+02</rscale>
<asrwt>0</asrwt>
<pdfrwt beam="1">  1        1 0.50175627E-01 0.93797802E+02</pdfrwt>
<pdfrwt beam="2">  1       -1 0.10375423E-02 0.93797802E+02</pdfrwt>
<totfact> 0.12067549E+05</totfact>
</mgrwt>
</event>
<event>
 7    1  0.3565607E-009  0.9119775E+02  0.7818608E-02  0.1299977E+00
          1   -1    0    0  501    0  0.00000000000E+00  0.00000000000E+00  0.22225780517E+03  0.22225780522E+03  0.50400000000E-02 0. -1.
         -1   -1    0    0    0  501 -0.00000000000E+00 -0.00000000000E+00 -0.93551597006E+01  0.93551610582E+01  0.50400000000E-02 0.  1.
         23    2    1    2    0    0  0.00000000000E+00  0.00000000000E+00  0.21290264547E+03  0.23161296628E+03  0.91197750540E+02 0.  0.
    9000005    2    3    3    0    0  0.17265715416E+02 -0.39811189230E+02  0.85082843945E+02  0.96628013871E+02  0.14657660592E+02 0.  0.
         22    1    3    3    0    0 -0.17265715416E+02  0.39811189230E+02  0.12781980152E+03  0.13498495241E+03  0.00000000000E+00 0. -1.
         22    1    4    4    0    0 -0.10361374850E+01 -0.11132322346E+02  0.28367925157E+02  0.30491660490E+02  0.00000000000E+00 0.  1.
         22    1    4    4    0    0  0.18301852901E+02 -0.28678866884E+02  0.56714918788E+02  0.66136353380E+02  0.00000000000E+00 0.  1.
<mgrwt>
<rscale>  0 0.91197751E+02</rscale>
<asrwt>0</asrwt>
<pdfrwt beam="1">  1        1 0.34193510E-01 0.91197751E+02</pdfrwt>
<pdfrwt beam="2">  1       -1 0.14392554E-02 0.91197751E+02</pdfrwt>
<totfact> 0.12078973E+05</totfact>
</mgrwt>
</event>
<event>
 7    1  0.3565607E-009  0.9391611E+02  0.7818608E-02  0.1293636E+00
          1   -1    0    0  501    0  0.00000000000E+00  0.00000000000E+00  0.16561755555E+04  0.16561755555E+04  0.50400000000E-02 0. -1.
         -1   -1    0    0    0  501 -0.00000000000E+00 -0.00000000000E+00 -0.13314112993E+01  0.13314208386E+01  0.50400000000E-02 0.  1.
         23    2    1    2    0    0 -0.44408920985E-15  0.35527136788E-14  0.16548441442E+04  0.16575069763E+04  0.93916106400E+02 0.  0.
    9000005    2    3    3    0    0 -0.28483602357E+01 -0.27455902693E+02  0.14921475332E+04  0.14924853808E+04  0.15697498881E+02 0.  0.
         22    1    3    3    0    0  0.28483602357E+01  0.27455902693E+02  0.16269661102E+03  0.16502159551E+03  0.00000000000E+00 0.  1.
         22    1    4    4    0    0 -0.74730857529E+01 -0.64578587828E+01  0.36957919939E+03  0.36971115154E+03  0.00000000000E+00 0.  1.
         22    1    4    4    0    0  0.46247255172E+01 -0.20998043910E+02  0.11225683338E+04  0.11227742293E+04  0.00000000000E+00 0.  1.
<mgrwt>
<rscale>  0 0.93916106E+02</rscale>
<asrwt>0</asrwt>
<pdfrwt beam="1">  1        1 0.25479588E+00 0.93916106E+02</pdfrwt>
<pdfrwt beam="2">  1       -1 0.20483353E-03 0.93916106E+02</pdfrwt>
<totfact> 0.93303085E+04</totfact>
</mgrwt>
</event>
<event>
 7    1  0.3565607E-009  0.9081372E+02  0.7818608E-02  0.1300893E+00
          1   -1    0    0  501    0  0.00000000000E+00  0.00000000000E+00  0.68806315314E+03  0.68806315316E+03  0.50400000000E-02 0. -1.
         -1   -1    0    0    0  501 -0.00000000000E+00 -0.00000000000E+00 -0.29965004322E+01  0.29965046708E+01  0.50400000000E-02 0.  1.
         23    2    1    2    0    0  0.00000000000E+00  0.00000000000E+00  0.68506665271E+03  0.69105965783E+03  0.90813721578E+02 0.  0.
    9000005    2    3    3    0    0  0.76652771984E+01 -0.18953635866E+02  0.65000868701E+03  0.65047569861E+03  0.13760250906E+02 0.  0.
         22    1    3    3    0    0 -0.76652771984E+01  0.18953635866E+02  0.35057965692E+02  0.40583959215E+02  0.00000000000E+00 0.  1.
         22    1    4    4    0    0  0.39719415737E+01 -0.10809576733E+02  0.17284386408E+03  0.17322708974E+03  0.00000000000E+00 0. -1.
         22    1    4    4    0    0  0.36933356248E+01 -0.81440591338E+01  0.47716482294E+03  0.47724860888E+03  0.00000000000E+00 0. -1.
<mgrwt>
<rscale>  0 0.90813722E+02</rscale>
<asrwt>0</asrwt>
<pdfrwt beam="1">  1        1 0.10585608E+00 0.90813722E+02</pdfrwt>
<pdfrwt beam="2">  1       -1 0.46099950E-03 0.90813722E+02</pdfrwt>
<totfact> 0.14369536E+05</totfact>
</mgrwt>
</event>
<event>
 7    1  0.3565607E-009  0.1058177E+03  0.7818608E-02  0.1268517E+00
         -1   -1    0    0    0  501 -0.00000000000E+00  0.00000000000E+00  0.15948028385E+02  0.15948029182E+02  0.50400000000E-02 0.  1.
          1   -1    0    0  501    0  0.00000000000E+00 -0.00000000000E+00 -0.17552913938E+03  0.17552913946E+03  0.50400000000E-02 0. -1.
         23    2    1    2    0    0  0.00000000000E+00  0.00000000000E+00 -0.15958111100E+03  0.19147716864E+03  0.10581765033E+03 0.  0.
    9000005    2    3    3    0    0  0.30425336353E+02 -0.41803799393E+02 -0.98737804288E+02  0.11163252757E+03  0.62776173791E+01 0.  0.
         22    1    3    3    0    0 -0.30425336353E+02  0.41803799393E+02 -0.60843306712E+02  0.79844641070E+02  0.00000000000E+00 0. -1.
         22    1    4    4    0    0  0.56617383891E+01 -0.12454363278E+02 -0.25559602391E+02  0.28990683342E+02  0.00000000000E+00 0.  1.
         22    1    4    4    0    0  0.24763597964E+02 -0.29349436116E+02 -0.73178201897E+02  0.82641844227E+02  0.00000000000E+00 0.  1.
<mgrwt>
<rscale>  0 0.10581765E+03</rscale>
<asrwt>0</asrwt>
<pdfrwt beam="2">  1        1 0.27004482E-01 0.10581765E+03</pdfrwt>
<pdfrwt beam="1">  1       -1 0.24535430E-02 0.10581765E+03</pdfrwt>
<totfact> 0.77094393E+04</totfact>
</mgrwt>
</event>
<event>
 7    1  0.3565607E-009  0.9109512E+02  0.7818608E-02  0.1300221E+00
         -1   -1    0    0    0  501 -0.00000000000E+00  0.00000000000E+00  0.26583707385E+01  0.26583755162E+01  0.50400000000E-02 0.  1.
          1   -1    0    0  501    0  0.00000000000E+00 -0.00000000000E+00 -0.78039461414E+03  0.78039461416E+03  0.50400000000E-02 0. -1.
         23    2    1    2    0    0  0.00000000000E+00  0.00000000000E+00 -0.77773624340E+03  0.78305298967E+03  0.91095116964E+02 0.  0.
    9000005    2    3    3    0    0 -0.30981652608E+02 -0.11017390364E+02 -0.65930296677E+03  0.66013965962E+03  0.47668159667E+01 0.  0.
         22    1    3    3    0    0  0.30981652608E+02  0.11017390364E+02 -0.11843327664E+03  0.12291333005E+03  0.00000000000E+00 0.  1.
         22    1    4    4    0    0 -0.29439402596E+02 -0.11099087020E+02 -0.64099391297E+03  0.64176558385E+03  0.00000000000E+00 0.  1.
         22    1    4    4    0    0 -0.15422500122E+01  0.81696656123E-01 -0.18309053798E+02  0.18374075771E+02  0.00000000000E+00 0.  1.
<mgrwt>
<rscale>  0 0.91095117E+02</rscale>
<asrwt>0</asrwt>
<pdfrwt beam="2">  1        1 0.12006053E+00 0.91095117E+02</pdfrwt>
<pdfrwt beam="1">  1       -1 0.40898110E-03 0.91095117E+02</pdfrwt>
<totfact> 0.14191308E+05</totfact>
</mgrwt>
</event>
<event>
 7    1  0.3565607E-009  0.9836667E+02  0.7818608E-02  0.1283769E+00
          1   -1    0    0  501    0  0.00000000000E+00  0.00000000000E+00  0.16195877077E+03  0.16195877085E+03  0.50400000000E-02 0. -1.
         -1   -1    0    0    0  501 -0.00000000000E+00 -0.00000000000E+00 -0.14935903664E+02  0.14935904515E+02  0.50400000000E-02 0.  1.
         23    2    1    2    0    0  0.00000000000E+00  0.00000000000E+00  0.14702286710E+03  0.17689467536E+03  0.98366674843E+02 0.  0.
    9000005    2    3    3    0    0 -0.39483645055E+02 -0.29423480558E+01  0.12554495531E+03  0.13185118156E+03  0.74553763088E+01 0.  0.
         22    1    3    3    0    0  0.39483645055E+02  0.29423480558E+01  0.21477911796E+02  0.45043493803E+02  0.00000000000E+00 0.  1.
         22    1    4    4    0    0 -0.37635938993E+02 -0.12938895659E+01  0.11456627580E+03  0.12059672303E+03  0.00000000000E+00 0. -1.
         22    1    4    4    0    0 -0.18477060622E+01 -0.16484584899E+01  0.10978679505E+02  0.11254458528E+02  0.00000000000E+00 0. -1.
<mgrwt>
<rscale>  0 0.98366675E+02</rscale>
<asrwt>0</asrwt>
<pdfrwt beam="1">  1        1 0.24916734E-01 0.98366675E+02</pdfrwt>
<pdfrwt beam="2">  1       -1 0.22978314E-02 0.98366675E+02</pdfrwt>
<totfact> 0.92614060E+04</totfact>
</mgrwt>
</event>
<event>
 7    1  0.3565607E-009  0.8436752E+02  0.7818608E-02  0.1317095E+00
          1   -1    0    0  501    0  0.00000000000E+00  0.00000000000E+00  0.60349452445E+03  0.60349452447E+03  0.50400000000E-02 0. -1.
         -1   -1    0    0    0  501 -0.00000000000E+00 -0.00000000000E+00 -0.29486072928E+01  0.29486116002E+01  0.50400000000E-02 0.  1.
         23    2    1    2    0    0 -0.17763568394E-14  0.00000000000E+00  0.60054591716E+03  0.60644313607E+03  0.84367521440E+02 0.  0.
    9000005    2    3    3    0    0  0.10857975286E+02  0.26538915684E+01  0.59219248053E+03  0.59248897285E+03  0.15043609390E+02 0.  0.
         22    1    3    3    0    0 -0.10857975286E+02 -0.26538915684E+01  0.83534366282E+01  0.13954163223E+02  0.00000000000E+00 0.  1.
         22    1    4    4    0    0  0.38666571557E+01  0.33533860427E+00  0.30218508820E+02  0.30466732100E+02  0.00000000000E+00 0.  1.
         22    1    4    4    0    0  0.69913181301E+01  0.23185529642E+01  0.56197397171E+03  0.56202224075E+03  0.00000000000E+00 0.  1.
<mgrwt>
<rscale>  0 0.84367521E+02</rscale>
<asrwt>0</asrwt>
<pdfrwt beam="1">  1        1 0.92845422E-01 0.84367521E+02</pdfrwt>
<pdfrwt beam="2">  1       -1 0.45363169E-03 0.84367521E+02</pdfrwt>
<totfact> 0.17379452E+05</totfact>
</mgrwt>
</event>
<event>
 7    1  0.3565607E-009  0.9178017E+02  0.7818608E-02  0.1298597E+00
         -1   -1    0    0    0  501 -0.00000000000E+00  0.00000000000E+00  0.28291457960E+01  0.28291502852E+01  0.50400000000E-02 0.  1.
          1   -1    0    0  501    0  0.00000000000E+00 -0.00000000000E+00 -0.74435824350E+03  0.74435824352E+03  0.50400000000E-02 0. -1.
         23    2    1    2    0    0 -0.88817841970E-15  0.00000000000E+00 -0.74152909771E+03  0.74718739381E+03  0.91780165152E+02 0.  0.
    9000005    2    3    3    0    0  0.67785036388E+01 -0.38863024204E+02 -0.55362964964E+03  0.55519133826E+03  0.13241992081E+02 0.  0.
         22    1    3    3    0    0 -0.67785036388E+01  0.38863024204E+02 -0.18789944807E+03  0.19199605555E+03  0.00000000000E+00 0.  1.
         22    1    4    4    0    0  0.44096406960E+01 -0.23003915407E+01 -0.66223707906E+02  0.66410211723E+02  0.00000000000E+00 0.  1.
         22    1    4    4    0    0  0.23688629428E+01 -0.36562632663E+02 -0.48740594173E+03  0.48878112653E+03  0.00000000000E+00 0.  1.
<mgrwt>
<rscale>  0 0.91780165E+02</rscale>
<asrwt>0</asrwt>
<pdfrwt beam="2">  1        1 0.11451650E+00 0.91780165E+02</pdfrwt>
<pdfrwt beam="1">  1       -1 0.43525414E-03 0.91780165E+02</pdfrwt>
<totfact> 0.13949915E+05</totfact>
</mgrwt>
</event>
<event>
 7    1  0.3565607E-009  0.9172362E+02  0.7818608E-02  0.1298731E+00
         -1   -1    0    0    0  501 -0.00000000000E+00  0.00000000000E+00  0.68230733212E+01  0.68230751826E+01  0.50400000000E-02 0.  1.
          1   -1    0    0  501    0  0.00000000000E+00 -0.00000000000E+00 -0.30826361564E+03  0.30826361568E+03  0.50400000000E-02 0. -1.
         23    2    1    2    0    0  0.35527136788E-14  0.00000000000E+00 -0.30144054232E+03  0.31508669087E+03  0.91723618584E+02 0.  0.
    9000005    2    3    3    0    0  0.19317614260E+02 -0.40214578914E+02 -0.13031080141E+03  0.13823711975E+03  0.11756433811E+02 0.  0.
         22    1    3    3    0    0 -0.19317614260E+02  0.40214578914E+02 -0.17112974092E+03  0.17684957112E+03  0.00000000000E+00 0. -1.
         22    1    4    4    0    0  0.10174563478E+02 -0.32189950510E+02 -0.10135949413E+03  0.10683380414E+03  0.00000000000E+00 0. -1.
         22    1    4    4    0    0  0.91430507820E+01 -0.80246284047E+01 -0.28951307273E+02  0.31403315613E+02  0.00000000000E+00 0. -1.
<mgrwt>
<rscale>  0 0.91723619E+02</rscale>
<asrwt>0</asrwt>
<pdfrwt beam="2">  1        1 0.47425161E-01 0.91723619E+02</pdfrwt>
<pdfrwt beam="1">  1       -1 0.10497040E-02 0.91723619E+02</pdfrwt>
<totfact> 0.12674793E+05</totfact>
</mgrwt>
</event>
<event>
 7    1  0.3565607E-009  0.8945957E+02  0.7818608E-02  0.1304166E+00
          1   -1    0    0  501    0  0.00000000000E+00  0.00000000000E+00  0.10600577182E+03  0.10600577194E+03  0.50400000000E-02 0. -1.
         -1   -1    0    0    0  501 -0.00000000000E+00 -0.00000000000E+00 -0.18874004496E+02  0.18874005169E+02  0.50400000000E-02 0.  1.
         23    2    1    2    0    0  0.00000000000E+00  0.00000000000E+00  0.87131767319E+02  0.12487977710E+03  0.89459565467E+02 0.  0.
    9000005    2    3    3    0    0 -0.43432981625E+02  0.64109982971E+00  0.45581352073E+02  0.64769279610E+02  0.15184367705E+02 0.  0.
         22    1    3    3    0    0  0.43432981625E+02 -0.64109982971E+00  0.41550415246E+02  0.60110497494E+02  0.00000000000E+00 0.  1.
         22    1    4    4    0    0 -0.32716271605E+02 -0.10777245631E+00  0.42420422616E+02  0.53571058394E+02  0.00000000000E+00 0. -1.
         22    1    4    4    0    0 -0.10716710021E+02  0.74887228602E+00  0.31609294575E+01  0.11198221216E+02  0.00000000000E+00 0. -1.
<mgrwt>
<rscale>  0 0.89459565E+02</rscale>
<asrwt>0</asrwt>
<pdfrwt beam="1">  1        1 0.16308580E-01 0.89459565E+02</pdfrwt>
<pdfrwt beam="2">  1       -1 0.29036931E-02 0.89459565E+02</pdfrwt>
<totfact> 0.11106726E+05</totfact>
</mgrwt>
</event>
<event>
 7    1  0.3565607E-009  0.9098368E+02  0.7818608E-02  0.1300487E+00
         -1   -1    0    0    0  501 -0.00000000000E+00  0.00000000000E+00  0.13175886162E+02  0.13175887126E+02  0.50400000000E-02 0.  1.
          1   -1    0    0  501    0  0.00000000000E+00 -0.00000000000E+00 -0.15706781449E+03  0.15706781457E+03  0.50400000000E-02 0. -1.
         23    2    1    2    0    0  0.00000000000E+00  0.00000000000E+00 -0.14389192833E+03  0.17024370170E+03  0.90983684966E+02 0.  0.
    9000005    2    3    3    0    0 -0.36669410023E+02 -0.48819584029E+01 -0.23947438155E+02  0.44724141978E+02  0.76347843624E+01 0.  0.
         22    1    3    3    0    0  0.36669410023E+02  0.48819584029E+01 -0.11994449018E+03  0.12551955972E+03  0.00000000000E+00 0. -1.
         22    1    4    4    0    0 -0.64006405553E+00 -0.56472707238E+00  0.48174882429E+00  0.98014314831E+00  0.00000000000E+00 0. -1.
         22    1    4    4    0    0 -0.36029345967E+02 -0.43172313305E+01 -0.24429186979E+02  0.43743998830E+02  0.00000000000E+00 0. -1.
<mgrwt>
<rscale>  0 0.90983685E+02</rscale>
<asrwt>0</asrwt>
<pdfrwt beam="2">  1        1 0.24164278E-01 0.90983685E+02</pdfrwt>
<pdfrwt beam="1">  1       -1 0.20270596E-02 0.90983685E+02</pdfrwt>
<totfact> 0.11373899E+05</totfact>
</mgrwt>
</event>
<event>
 7    1  0.3565607E-009  0.9242872E+02  0.7818608E-02  0.1297075E+00
          1   -1    0    0  501    0  0.00000000000E+00  0.00000000000E+00  0.92389181928E+01  0.92389195675E+01  0.50400000000E-02 0. -1.
         -1   -1    0    0    0  501 -0.00000000000E+00 -0.00000000000E+00 -0.23117068412E+03  0.23117068417E+03  0.50400000000E-02 0.  1.
         23    2    1    2    0    0  0.00000000000E+00 -0.35527136788E-14 -0.22193176592E+03  0.24040960374E+03  0.92428723046E+02 0.  0.
    9000005    2    3    3    0    0 -0.22601132905E+02 -0.30408012902E+02 -0.50900819602E+02  0.65232427552E+02  0.15130026798E+02 0.  0.
         22    1    3    3    0    0  0.22601132905E+02  0.30408012902E+02 -0.17103094632E+03  0.17517717619E+03  0.00000000000E+00 0.  1.
         22    1    4    4    0    0 -0.21171892234E+02 -0.25996045310E+02 -0.50448063477E+02  0.60572687749E+02  0.00000000000E+00 0. -1.
         22    1    4    4    0    0 -0.14292406704E+01 -0.44119675917E+01 -0.45275612540E+00  0.46597398031E+01  0.00000000000E+00 0. -1.
<mgrwt>
<rscale>  0 0.92428723E+02</rscale>
<asrwt>0</asrwt>
<pdfrwt beam="1">  1        1 0.14213723E-02 0.92428723E+02</pdfrwt>
<pdfrwt beam="2">  1       -1 0.35564716E-01 0.92428723E+02</pdfrwt>
<totfact> 0.64127720E+04</totfact>
</mgrwt>
</event>
<event>
 7    1  0.3565607E-009  0.9078351E+02  0.7818608E-02  0.1300965E+00
          1   -1    0    0  501    0  0.00000000000E+00  0.00000000000E+00  0.22147613068E+02  0.22147613641E+02  0.50400000000E-02 0. -1.
         -1   -1    0    0    0  501 -0.00000000000E+00 -0.00000000000E+00 -0.93030852453E+02  0.93030852589E+02  0.50400000000E-02 0.  1.
         23    2    1    2    0    0 -0.88817841970E-15  0.00000000000E+00 -0.70883239385E+02  0.11517846623E+03  0.90783508731E+02 0.  0.
    9000005    2    3    3    0    0  0.60955555778E+01 -0.40007566052E+02 -0.59538026519E+02  0.73149012342E+02  0.12970746529E+02 0.  0.
         22    1    3    3    0    0 -0.60955555778E+01  0.40007566052E+02 -0.11345212866E+02  0.42029453889E+02  0.00000000000E+00 0. -1.
         22    1    4    4    0    0  0.47476358663E+01 -0.31419614243E+02 -0.54539692690E+02  0.63121393237E+02  0.00000000000E+00 0.  1.
         22    1    4    4    0    0  0.13479197115E+01 -0.85879518097E+01 -0.49983338288E+01  0.10027619104E+02  0.00000000000E+00 0.  1.
<mgrwt>
<rscale>  0 0.90783509E+02</rscale>
<asrwt>0</asrwt>
<pdfrwt beam="1">  1        1 0.34073252E-02 0.90783509E+02</pdfrwt>
<pdfrwt beam="2">  1       -1 0.14312439E-01 0.90783509E+02</pdfrwt>
<totfact> 0.83373892E+04</totfact>
</mgrwt>
</event>
<event>
 7    1  0.3565607E-009  0.9088383E+02  0.7818608E-02  0.1300725E+00
          1   -1    0    0  501    0  0.00000000000E+00  0.00000000000E+00  0.21080434271E+03  0.21080434277E+03  0.50400000000E-02 0. -1.
         -1   -1    0    0    0  501 -0.00000000000E+00 -0.00000000000E+00 -0.97956595565E+01  0.97956608531E+01  0.50400000000E-02 0.  1.
         23    2    1    2    0    0  0.00000000000E+00  0.00000000000E+00  0.20100868315E+03  0.22060000362E+03  0.90883831871E+02 0.  0.
    9000005    2    3    3    0    0  0.38890583765E+02  0.21813715049E+02  0.10216491842E+03  0.11216382195E+03  0.12439321858E+02 0.  0.
         22    1    3    3    0    0 -0.38890583765E+02 -0.21813715049E+02  0.98843764735E+02  0.10843618168E+03  0.00000000000E+00 0. -1.
         22    1    4    4    0    0  0.12357290959E+02  0.10728410015E+02  0.25670647226E+02  0.30443119917E+02  0.00000000000E+00 0. -1.
         22    1    4    4    0    0  0.26533292806E+02  0.11085305034E+02  0.76494271193E+02  0.81720702029E+02  0.00000000000E+00 0. -1.
<mgrwt>
<rscale>  0 0.90883832E+02</rscale>
<asrwt>0</asrwt>
<pdfrwt beam="1">  1        1 0.32431436E-01 0.90883832E+02</pdfrwt>
<pdfrwt beam="2">  1       -1 0.15070247E-02 0.90883832E+02</pdfrwt>
<totfact> 0.12065911E+05</totfact>
</mgrwt>
</event>
<event>
 7    1  0.3565607E-009  0.8972441E+02  0.7818608E-02  0.1303520E+00
         -1   -1    0    0    0  501 -0.00000000000E+00  0.00000000000E+00  0.59693464123E+02  0.59693464335E+02  0.50400000000E-02 0.  1.
          1   -1    0    0  501    0  0.00000000000E+00 -0.00000000000E+00 -0.33715874755E+02  0.33715875132E+02  0.50400000000E-02 0. -1.
         23    2    1    2    0    0  0.35527136788E-14  0.35527136788E-14  0.25977589367E+02  0.93409339468E+02  0.89724408889E+02 0.  0.
    9000005    2    3    3    0    0 -0.15838210156E+02 -0.27069813833E+02 -0.18513619821E+02  0.38975054160E+02  0.13880814312E+02 0.  0.
         22    1    3    3    0    0  0.15838210156E+02  0.27069813833E+02  0.44491209188E+02  0.54434285308E+02  0.00000000000E+00 0.  1.
         22    1    4    4    0    0 -0.70120837458E+01 -0.23644375784E+02 -0.11613417720E+02  0.27259811001E+02  0.00000000000E+00 0.  1.
         22    1    4    4    0    0 -0.88261264101E+01 -0.34254380498E+01 -0.69002021009E+01  0.11715243159E+02  0.00000000000E+00 0.  1.
<mgrwt>
<rscale>  0 0.89724409E+02</rscale>
<asrwt>0</asrwt>
<pdfrwt beam="2">  1        1 0.51870578E-02 0.89724409E+02</pdfrwt>
<pdfrwt beam="1">  1       -1 0.91836098E-02 0.89724409E+02</pdfrwt>
<totfact> 0.92434982E+04</totfact>
</mgrwt>
</event>
<event>
 7    1  0.3565607E-009  0.9161731E+02  0.7818608E-02  0.1298982E+00
          1   -1    0    0  501    0  0.00000000000E+00  0.00000000000E+00  0.15776824263E+03  0.15776824271E+03  0.50400000000E-02 0. -1.
         -1   -1    0    0    0  501 -0.00000000000E+00 -0.00000000000E+00 -0.13300730594E+02  0.13300731549E+02  0.50400000000E-02 0.  1.
         23    2    1    2    0    0  0.00000000000E+00  0.00000000000E+00  0.14446751204E+03  0.17106897426E+03  0.91617312340E+02 0.  0.
    9000005    2    3    3    0    0  0.37522462734E+02 -0.24411432079E+02  0.60192010162E+02  0.75642492391E+02  0.97393707221E+01 0.  0.
         22    1    3    3    0    0 -0.37522462734E+02  0.24411432079E+02  0.84275501874E+02  0.95426481869E+02  0.00000000000E+00 0. -1.
         22    1    4    4    0    0  0.23000987883E+02 -0.11097894625E+02  0.27971375265E+02  0.37876200218E+02  0.00000000000E+00 0.  1.
         22    1    4    4    0    0  0.14521474850E+02 -0.13313537454E+02  0.32220634897E+02  0.37766292173E+02  0.00000000000E+00 0.  1.
<mgrwt>
<rscale>  0 0.91617312E+02</rscale>
<asrwt>0</asrwt>
<pdfrwt beam="1">  1        1 0.24272037E-01 0.91617312E+02</pdfrwt>
<pdfrwt beam="2">  1       -1 0.20462664E-02 0.91617312E+02</pdfrwt>
<totfact> 0.11172197E+05</totfact>
</mgrwt>
</event>
<event>
 7    1  0.3565607E-009  0.9245202E+02  0.7818608E-02  0.1297020E+00
          1   -1    0    0  501    0  0.00000000000E+00  0.00000000000E+00  0.39798846503E+03  0.39798846506E+03  0.50400000000E-02 0. -1.
         -1   -1    0    0    0  501 -0.00000000000E+00 -0.00000000000E+00 -0.53691092388E+01  0.53691116043E+01  0.50400000000E-02 0.  1.
         23    2    1    2    0    0  0.00000000000E+00  0.00000000000E+00  0.39261935579E+03  0.40335757667E+03  0.92452020596E+02 0.  0.
    9000005    2    3    3    0    0 -0.32914808008E+01  0.38391951628E+02  0.30449186186E+03  0.30717425700E+03  0.12488171529E+02 0.  0.
         22    1    3    3    0    0  0.32914808008E+01 -0.38391951628E+02  0.88127493935E+02  0.96183319671E+02  0.00000000000E+00 0.  1.
         22    1    4    4    0    0  0.28939165515E+01  0.21397977272E+01  0.35024306633E+02  0.35208742415E+02  0.00000000000E+00 0. -1.
         22    1    4    4    0    0 -0.61853973523E+01  0.36252153901E+02  0.26946755522E+03  0.27196551458E+03  0.00000000000E+00 0. -1.
<mgrwt>
<rscale>  0 0.92452021E+02</rscale>
<asrwt>0</asrwt>
<pdfrwt beam="1">  1        1 0.61229001E-01 0.92452021E+02</pdfrwt>
<pdfrwt beam="2">  1       -1 0.82601691E-03 0.92452021E+02</pdfrwt>
<totfact> 0.12989398E+05</totfact>
</mgrwt>
</event>
<event>
 7    1  0.3565607E-009  0.8955327E+02  0.7818608E-02  0.1303937E+00
         -1   -1    0    0    0  501 -0.00000000000E+00  0.00000000000E+00  0.36295039508E+01  0.36295074501E+01  0.50400000000E-02 0.  1.
          1   -1    0    0  501    0  0.00000000000E+00 -0.00000000000E+00 -0.55240224810E+03  0.55240224813E+03  0.50400000000E-02 0. -1.
         23    2    1    2    0    0  0.00000000000E+00  0.35527136788E-14 -0.54877274415E+03  0.55603175558E+03  0.89553271770E+02 0.  0.
    9000005    2    3    3    0    0  0.17904980210E+02 -0.22730461922E+02 -0.48362516885E+03  0.48474733383E+03  0.15792767253E+02 0.  0.
         22    1    3    3    0    0 -0.17904980210E+02  0.22730461922E+02 -0.65147575304E+02  0.71284421745E+02  0.00000000000E+00 0.  1.
         22    1    4    4    0    0  0.94553681956E+01 -0.79665050303E+01 -0.10254564188E+03  0.10328832392E+03  0.00000000000E+00 0.  1.
         22    1    4    4    0    0  0.84496120144E+01 -0.14763956892E+02 -0.38107952697E+03  0.38145900991E+03  0.00000000000E+00 0.  1.
<mgrwt>
<rscale>  0 0.89553272E+02</rscale>
<asrwt>0</asrwt>
<pdfrwt beam="2">  1        1 0.84984895E-01 0.89553272E+02</pdfrwt>
<pdfrwt beam="1">  1       -1 0.55838593E-03 0.89553272E+02</pdfrwt>
<totfact> 0.14756425E+05</totfact>
</mgrwt>
</event>
<event>
 7    1  0.3565607E-009  0.9414673E+02  0.7818608E-02  0.1293110E+00
         -1   -1    0    0    0  501 -0.00000000000E+00  0.00000000000E+00  0.59560286650E+02  0.59560286863E+02  0.50400000000E-02 0.  1.
          1   -1    0    0  501    0  0.00000000000E+00 -0.00000000000E+00 -0.37204350231E+02  0.37204350572E+02  0.50400000000E-02 0. -1.
         23    2    1    2    0    0  0.00000000000E+00  0.00000000000E+00  0.22355936419E+02  0.96764637435E+02  0.94146732098E+02 0.  0.
    9000005    2    3    3    0    0  0.23107105314E+02  0.27596556203E+02  0.42115814858E+02  0.55704181688E+02  0.58056667283E+01 0.  0.
         22    1    3    3    0    0 -0.23107105314E+02 -0.27596556203E+02 -0.19759878439E+02  0.41060455747E+02  0.00000000000E+00 0. -1.
         22    1    4    4    0    0  0.13179806795E+02  0.16713223317E+02  0.29054599733E+02  0.36016786453E+02  0.00000000000E+00 0. -1.
         22    1    4    4    0    0  0.99272985192E+01  0.10883332885E+02  0.13061215125E+02  0.19687395235E+02  0.00000000000E+00 0. -1.
<mgrwt>
<rscale>  0 0.94146732E+02</rscale>
<asrwt>0</asrwt>
<pdfrwt beam="2">  1        1 0.57237463E-02 0.94146732E+02</pdfrwt>
<pdfrwt beam="1">  1       -1 0.91631210E-02 0.94146732E+02</pdfrwt>
<totfact> 0.81847498E+04</totfact>
</mgrwt>
</event>
<event>
 7    1  0.3565607E-009  0.9256077E+02  0.7818608E-02  0.1296766E+00
          1   -1    0    0  501    0  0.00000000000E+00  0.00000000000E+00  0.30189103554E+03  0.30189103558E+03  0.50400000000E-02 0. -1.
         -1   -1    0    0    0  501 -0.00000000000E+00 -0.00000000000E+00 -0.70948568546E+01  0.70948586448E+01  0.50400000000E-02 0.  1.
         23    2    1    2    0    0 -0.71054273576E-14 -0.62450045135E-16  0.29479617868E+03  0.30898589422E+03  0.92560768491E+02 0.  0.
    9000005    2    3    3    0    0  0.41960436532E+02 -0.58296439839E-01  0.20948437444E+03  0.21391336625E+03  0.10702499371E+02 0.  0.
         22    1    3    3    0    0 -0.41960436532E+02  0.58296439839E-01  0.85311804238E+02  0.95072527971E+02  0.00000000000E+00 0.  1.
         22    1    4    4    0    0  0.41123654197E+02  0.19010481028E+01  0.19990574222E+03  0.20410064843E+03  0.00000000000E+00 0. -1.
         22    1    4    4    0    0  0.83678233523E+00 -0.19593445426E+01  0.95786322279E+01  0.98127178228E+01  0.00000000000E+00 0. -1.
<mgrwt>
<rscale>  0 0.92560768E+02</rscale>
<asrwt>0</asrwt>
<pdfrwt beam="1">  1        1 0.46444770E-01 0.92560768E+02</pdfrwt>
<pdfrwt beam="2">  1       -1 0.10915167E-02 0.92560768E+02</pdfrwt>
<totfact> 0.12322187E+05</totfact>
</mgrwt>
</event>
<event>
 7    1  0.3565607E-009  0.9058635E+02  0.7818608E-02  0.1301438E+00
          1   -1    0    0  501    0  0.00000000000E+00  0.00000000000E+00  0.54634738570E+01  0.54634761816E+01  0.50400000000E-02 0. -1.
         -1   -1    0    0    0  501 -0.00000000000E+00 -0.00000000000E+00 -0.37548845058E+03  0.37548845062E+03  0.50400000000E-02 0.  1.
         23    2    1    2    0    0  0.00000000000E+00  0.00000000000E+00 -0.37002497673E+03  0.38095192680E+03  0.90586351789E+02 0.  0.
    9000005    2    3    3    0    0  0.38911127152E+02 -0.70903363063E+01 -0.27376136861E+03  0.27687968779E+03  0.12358231315E+02 0.  0.
         22    1    3    3    0    0 -0.38911127152E+02  0.70903363063E+01 -0.96263608120E+02  0.10407223901E+03  0.00000000000E+00 0. -1.
         22    1    4    4    0    0  0.87859480779E+01  0.23408632700E+00 -0.99025055812E+02  0.99414331756E+02  0.00000000000E+00 0.  1.
         22    1    4    4    0    0  0.30125179074E+02 -0.73244226333E+01 -0.17473631280E+03  0.17746535603E+03  0.00000000000E+00 0.  1.
<mgrwt>
<rscale>  0 0.90586352E+02</rscale>
<asrwt>0</asrwt>
<pdfrwt beam="1">  1        1 0.84053492E-03 0.90586352E+02</pdfrwt>
<pdfrwt beam="2">  1       -1 0.57767434E-01 0.90586352E+02</pdfrwt>
<totfact> 0.55914754E+04</totfact>
</mgrwt>
</event>
<event>
 7    1  0.3565607E-009  0.1207741E+03  0.7818608E-02  0.1241826E+00
          1   -1    0    0  501    0  0.00000000000E+00  0.00000000000E+00  0.86389673589E+02  0.86389673736E+02  0.50400000000E-02 0. -1.
         -1   -1    0    0    0  501 -0.00000000000E+00 -0.00000000000E+00 -0.42210991739E+02  0.42210992040E+02  0.50400000000E-02 0.  1.
         23    2    1    2    0    0  0.00000000000E+00  0.00000000000E+00  0.44178681850E+02  0.12860066578E+03  0.12077406720E+03 0.  0.
    9000005    2    3    3    0    0  0.30892486293E+02 -0.12552616435E+02 -0.31000885006E+02  0.46357847480E+02  0.87224573994E+01 0.  0.
         22    1    3    3    0    0 -0.30892486293E+02  0.12552616435E+02  0.75179566856E+02  0.82242818297E+02  0.00000000000E+00 0. -1.
         22    1    4    4    0    0  0.12588494949E+02 -0.74533629127E+00 -0.12857518835E+02  0.18009484219E+02  0.00000000000E+00 0.  1.
         22    1    4    4    0    0  0.18303991344E+02 -0.11807280144E+02 -0.18143366171E+02  0.28348363261E+02  0.00000000000E+00 0.  1.
<mgrwt>
<rscale>  0 0.12077407E+03</rscale>
<asrwt>0</asrwt>
<pdfrwt beam="1">  1        1 0.13290719E-01 0.12077407E+03</pdfrwt>
<pdfrwt beam="2">  1       -1 0.64939988E-02 0.12077407E+03</pdfrwt>
<totfact> 0.46485265E+04</totfact>
</mgrwt>
</event>
<event>
 7    1  0.3565607E-009  0.9234712E+02  0.7818608E-02  0.1297265E+00
          1   -1    0    0  501    0  0.00000000000E+00  0.00000000000E+00  0.14642080077E+03  0.14642080086E+03  0.50400000000E-02 0. -1.
         -1   -1    0    0    0  501 -0.00000000000E+00 -0.00000000000E+00 -0.14560754895E+02  0.14560755767E+02  0.50400000000E-02 0.  1.
         23    2    1    2    0    0  0.00000000000E+00  0.00000000000E+00  0.13186004587E+03  0.16098155662E+03  0.92347116223E+02 0.  0.
    9000005    2    3    3    0    0  0.20528913723E+02 -0.29206620741E+02  0.11565522193E+03  0.12177620861E+03  0.13373542161E+02 0.  0.
         22    1    3    3    0    0 -0.20528913723E+02  0.29206620741E+02  0.16204823945E+02  0.39205348014E+02  0.00000000000E+00 0.  1.
         22    1    4    4    0    0  0.15728747601E+02 -0.22395424222E+02  0.10337249177E+03  0.10693372051E+03  0.00000000000E+00 0.  1.
         22    1    4    4    0    0  0.48001661222E+01 -0.68111965193E+01  0.12282730156E+02  0.14842488097E+02  0.00000000000E+00 0.  1.
<mgrwt>
<rscale>  0 0.92347116E+02</rscale>
<asrwt>0</asrwt>
<pdfrwt beam="1">  1        1 0.22526277E-01 0.92347116E+02</pdfrwt>
<pdfrwt beam="2">  1       -1 0.22401162E-02 0.92347116E+02</pdfrwt>
<totfact> 0.10785357E+05</totfact>
</mgrwt>
</event>
<event>
 7    1  0.3565607E-009  0.9328992E+02  0.7818608E-02  0.1295075E+00
          1   -1    0    0  501    0  0.00000000000E+00  0.00000000000E+00  0.67362421385E+02  0.67362421573E+02  0.50400000000E-02 0. -1.
         -1   -1    0    0    0  501 -0.00000000000E+00 -0.00000000000E+00 -0.32299196603E+02  0.32299196997E+02  0.50400000000E-02 0.  1.
         23    2    1    2    0    0  0.00000000000E+00  0.00000000000E+00  0.35063224781E+02  0.99661618570E+02  0.93289916304E+02 0.  0.
    9000005    2    3    3    0    0 -0.14461460761E+02 -0.13621750412E+01 -0.29802426914E+02  0.33189503078E+02  0.15391869367E+01 0.  0.
         22    1    3    3    0    0  0.14461460761E+02  0.13621750412E+01  0.64865651695E+02  0.66472115492E+02  0.00000000000E+00 0. -1.
         22    1    4    4    0    0 -0.63386761025E+00 -0.30989230570E+00 -0.19930613928E+01  0.21142646721E+01  0.00000000000E+00 0. -1.
         22    1    4    4    0    0 -0.13827593151E+02 -0.10522827355E+01 -0.27809365521E+02  0.31075238406E+02  0.00000000000E+00 0. -1.
<mgrwt>
<rscale>  0 0.93289916E+02</rscale>
<asrwt>0</asrwt>
<pdfrwt beam="1">  1        1 0.10363449E-01 0.93289916E+02</pdfrwt>
<pdfrwt beam="2">  1       -1 0.49691073E-02 0.93289916E+02</pdfrwt>
<totfact> 0.92056387E+04</totfact>
</mgrwt>
</event>
<event>
 7    1  0.3565607E-009  0.9106521E+02  0.7818608E-02  0.1300292E+00
         -1   -1    0    0    0  501 -0.00000000000E+00  0.00000000000E+00  0.20642246570E+02  0.20642247185E+02  0.50400000000E-02 0.  1.
          1   -1    0    0  501    0  0.00000000000E+00 -0.00000000000E+00 -0.10043568573E+03  0.10043568585E+03  0.50400000000E-02 0. -1.
         23    2    1    2    0    0  0.00000000000E+00  0.35527136788E-14 -0.79793439155E+02  0.12107793304E+03  0.91065212547E+02 0.  0.
    9000005    2    3    3    0    0  0.12047024623E+02 -0.23008708437E+02  0.94011140077E+01  0.28179064475E+02  0.55809733800E+01 0.  0.
         22    1    3    3    0    0 -0.12047024623E+02  0.23008708437E+02 -0.89194553163E+02  0.92898868562E+02  0.00000000000E+00 0. -1.
         22    1    4    4    0    0  0.27261987325E+01 -0.18934016798E+01  0.22712117146E+01  0.40218816619E+01  0.00000000000E+00 0.  1.
         22    1    4    4    0    0  0.93208258907E+01 -0.21115306757E+02  0.71299022931E+01  0.24157182813E+02  0.00000000000E+00 0.  1.
<mgrwt>
<rscale>  0 0.91065213E+02</rscale>
<asrwt>0</asrwt>
<pdfrwt beam="2">  1        1 0.15451644E-01 0.91065213E+02</pdfrwt>
<pdfrwt beam="1">  1       -1 0.31757304E-02 0.91065213E+02</pdfrwt>
<totfact> 0.10487722E+05</totfact>
</mgrwt>
</event>
<event>
 7    1  0.3565607E-009  0.9142474E+02  0.7818608E-02  0.1299438E+00
         -1   -1    0    0    0  501 -0.00000000000E+00  0.00000000000E+00  0.72799452326E+02  0.72799452501E+02  0.50400000000E-02 0.  1.
          1   -1    0    0  501    0  0.00000000000E+00 -0.00000000000E+00 -0.28703798888E+02  0.28703799331E+02  0.50400000000E-02 0. -1.
         23    2    1    2    0    0  0.00000000000E+00  0.00000000000E+00  0.44095653438E+02  0.10150325183E+03  0.91424742166E+02 0.  0.
    9000005    2    3    3    0    0 -0.93553467344E+01 -0.36046367202E+02  0.51388090382E+02  0.63555356797E+02  0.34182515122E+01 0.  0.
         22    1    3    3    0    0  0.93553467344E+01  0.36046367202E+02 -0.72924369443E+01  0.37947895035E+02  0.00000000000E+00 0. -1.
         22    1    4    4    0    0  0.24192814548E+00 -0.22146076762E+01  0.32452953259E+01  0.39363635680E+01  0.00000000000E+00 0. -1.
         22    1    4    4    0    0 -0.95972748798E+01 -0.33831759526E+02  0.48142795057E+02  0.59618993229E+02  0.00000000000E+00 0. -1.
<mgrwt>
<rscale>  0 0.91424742E+02</rscale>
<asrwt>0</asrwt>
<pdfrwt beam="2">  1        1 0.44159690E-02 0.91424742E+02</pdfrwt>
<pdfrwt beam="1">  1       -1 0.11199916E-01 0.91424742E+02</pdfrwt>
<totfact> 0.85394336E+04</totfact>
</mgrwt>
</event>
<event>
 7    1  0.3565607E-009  0.9523367E+02  0.7818608E-02  0.1290651E+00
         -1   -1    0    0    0  501 -0.00000000000E+00  0.00000000000E+00  0.37886830778E+03  0.37886830781E+03  0.50400000000E-02 0.  1.
          1   -1    0    0  501    0  0.00000000000E+00 -0.00000000000E+00 -0.59845662746E+01  0.59845683969E+01  0.50400000000E-02 0. -1.
         23    2    1    2    0    0  0.00000000000E+00  0.00000000000E+00  0.37288374150E+03  0.38485287621E+03  0.95233668670E+02 0.  0.
    9000005    2    3    3    0    0  0.27586287900E+02  0.37161139583E+02  0.17492740114E+03  0.18155834538E+03  0.14895755497E+02 0.  0.
         22    1    3    3    0    0 -0.27586287900E+02 -0.37161139583E+02  0.19795634036E+03  0.20329453083E+03  0.00000000000E+00 0.  1.
         22    1    4    4    0    0  0.24930417005E+02  0.26255156031E+02  0.14842130182E+03  0.15277349817E+03  0.00000000000E+00 0.  1.
         22    1    4    4    0    0  0.26558708943E+01  0.10905983552E+02  0.26506099316E+02  0.28784847201E+02  0.00000000000E+00 0.  1.
<mgrwt>
<rscale>  0 0.95233669E+02</rscale>
<asrwt>0</asrwt>
<pdfrwt beam="2">  1        1 0.92070229E-03 0.95233669E+02</pdfrwt>
<pdfrwt beam="1">  1       -1 0.58287456E-01 0.95233669E+02</pdfrwt>
<totfact> 0.48826273E+04</totfact>
</mgrwt>
</event>
<event>
 7    1  0.3565607E-009  0.8895395E+02  0.7818608E-02  0.1305405E+00
          1   -1    0    0  501    0  0.00000000000E+00  0.00000000000E+00  0.30418853192E+02  0.30418853610E+02  0.50400000000E-02 0. -1.
         -1   -1    0    0    0  501 -0.00000000000E+00 -0.00000000000E+00 -0.65032086409E+02  0.65032086604E+02  0.50400000000E-02 0.  1.
         23    2    1    2    0    0  0.00000000000E+00  0.00000000000E+00 -0.34613233216E+02  0.95450940214E+02  0.88953954797E+02 0.  0.
    9000005    2    3    3    0    0 -0.42474469630E+02 -0.72042737414E+01 -0.96913373676E+01  0.45680637591E+02  0.11696858564E+02 0.  0.
         22    1    3    3    0    0  0.42474469630E+02  0.72042737414E+01 -0.24921895849E+02  0.49770302623E+02  0.00000000000E+00 0.  1.
         22    1    4    4    0    0 -0.22659902697E+01 -0.33386972298E+01 -0.22072586671E+01  0.45993045038E+01  0.00000000000E+00 0.  1.
         22    1    4    4    0    0 -0.40208479360E+02 -0.38655765115E+01 -0.74840787006E+01  0.41081333087E+02  0.00000000000E+00 0.  1.
<mgrwt>
<rscale>  0 0.88953955E+02</rscale>
<asrwt>0</asrwt>
<pdfrwt beam="1">  1        1 0.46798236E-02 0.88953955E+02</pdfrwt>
<pdfrwt beam="2">  1       -1 0.10004936E-01 0.88953955E+02</pdfrwt>
<totfact> 0.93231367E+04</totfact>
</mgrwt>
</event>
<event>
 7    1  0.3565607E-009  0.9291832E+02  0.7818608E-02  0.1295935E+00
         -1   -1    0    0    0  501 -0.00000000000E+00  0.00000000000E+00  0.42574607969E+01  0.42574637801E+01  0.50400000000E-02 0.  1.
          1   -1    0    0  501    0  0.00000000000E+00 -0.00000000000E+00 -0.50698127431E+03  0.50698127434E+03  0.50400000000E-02 0. -1.
         23    2    1    2    0    0  0.00000000000E+00  0.00000000000E+00 -0.50272381352E+03  0.51123873812E+03  0.92918322609E+02 0.  0.
    9000005    2    3    3    0    0  0.90926455368E+01  0.13986817351E+02 -0.48983263699E+03  0.49015581387E+03  0.61969631897E+01 0.  0.
         22    1    3    3    0    0 -0.90926455368E+01 -0.13986817351E+02 -0.12891176529E+02  0.21082924246E+02  0.00000000000E+00 0.  1.
         22    1    4    4    0    0  0.64590851121E+01  0.13499576756E+02 -0.38937356839E+03  0.38966105029E+03  0.00000000000E+00 0.  1.
         22    1    4    4    0    0  0.26335604247E+01  0.48724059464E+00 -0.10045906860E+03  0.10049476358E+03  0.00000000000E+00 0.  1.
<mgrwt>
<rscale>  0 0.92918323E+02</rscale>
<asrwt>0</asrwt>
<pdfrwt beam="2">  1        1 0.77997072E-01 0.92918323E+02</pdfrwt>
<pdfrwt beam="1">  1       -1 0.65499460E-03 0.92918323E+02</pdfrwt>
<totfact> 0.13266074E+05</totfact>
</mgrwt>
</event>
<event>
 7    1  0.5837428E-009  0.9036237E+02  0.7818608E-02  0.1301977E+00
          1   -1    0    0  501    0  0.00000000000E+00  0.00000000000E+00  0.71399757720E+03  0.71399757722E+03  0.50400000000E-02 0. -1.
         -1   -1    0    0    0  501 -0.00000000000E+00 -0.00000000000E+00 -0.28590263434E+01  0.28590307858E+01  0.50400000000E-02 0.  1.
         23    2    1    2    0    0 -0.35527136788E-14  0.00000000000E+00  0.71113855085E+03  0.71685660800E+03  0.90362370066E+02 0.  0.
    9000005    2    3    3    0    0 -0.24206586295E+02  0.25841865525E+02  0.57085332237E+03  0.57217175681E+03  0.15913604065E+02 0.  0.
         22    1    3    3    0    0  0.24206586295E+02 -0.25841865525E+02  0.14028522849E+03  0.14468485120E+03  0.00000000000E+00 0.  1.
         22    1    4    4    0    0 -0.20124116855E+02  0.19879084764E+02  0.52414322451E+03  0.52490597053E+03  0.00000000000E+00 0.  1.
         22    1    4    4    0    0 -0.40824694409E+01  0.59627807607E+01  0.46710097854E+02  0.47265786280E+02  0.00000000000E+00 0.  1.
<mgrwt>
<rscale>  0 0.90362370E+02</rscale>
<asrwt>0</asrwt>
<pdfrwt beam="1">  1        1 0.10984565E+00 0.90362370E+02</pdfrwt>
<pdfrwt beam="2">  1       -1 0.43985108E-03 0.90362370E+02</pdfrwt>
<totfact> 0.14554656E+05</totfact>
</mgrwt>
</event>
<event>
 7    1  0.3565607E-009  0.1061919E+03  0.7818608E-02  0.1267789E+00
         -1   -1    0    0    0  501 -0.00000000000E+00  0.00000000000E+00  0.41230560746E+02  0.41230561054E+02  0.50400000000E-02 0.  1.
          1   -1    0    0  501    0  0.00000000000E+00 -0.00000000000E+00 -0.68375984144E+02  0.68375984329E+02  0.50400000000E-02 0. -1.
         23    2    1    2    0    0  0.00000000000E+00  0.00000000000E+00 -0.27145423397E+02  0.10960654538E+03  0.10619190543E+03 0.  0.
    9000005    2    3    3    0    0  0.50465904256E+01  0.26154656444E+02 -0.60263018635E+02  0.67105848413E+02  0.12729074890E+02 0.  0.
         22    1    3    3    0    0 -0.50465904256E+01 -0.26154656444E+02  0.33117595238E+02  0.42500696971E+02  0.00000000000E+00 0.  1.
         22    1    4    4    0    0  0.13511969087E+01  0.64336745885E+01 -0.30573738751E+02  0.31272534323E+02  0.00000000000E+00 0.  1.
         22    1    4    4    0    0  0.36953935169E+01  0.19720981856E+02 -0.29689279885E+02  0.35833314090E+02  0.00000000000E+00 0.  1.
<mgrwt>
<rscale>  0 0.10619191E+03</rscale>
<asrwt>0</asrwt>
<pdfrwt beam="2">  1        1 0.10519382E-01 0.10619191E+03</pdfrwt>
<pdfrwt beam="1">  1       -1 0.63431632E-02 0.10619191E+03</pdfrwt>
<totfact> 0.64224532E+04</totfact>
</mgrwt>
</event>
<event>
 7    1  0.3565607E-009  0.9271483E+02  0.7818608E-02  0.1296407E+00
          1   -1    0    0  501    0  0.00000000000E+00  0.00000000000E+00  0.12071321917E+03  0.12071321928E+03  0.50400000000E-02 0. -1.
         -1   -1    0    0    0  501 -0.00000000000E+00 -0.00000000000E+00 -0.17802607212E+02  0.17802607925E+02  0.50400000000E-02 0.  1.
         23    2    1    2    0    0  0.00000000000E+00  0.00000000000E+00  0.10291061196E+03  0.13851582720E+03  0.92714833395E+02 0.  0.
    9000005    2    3    3    0    0  0.29055836522E+02  0.33404745373E+02  0.34418167904E+02  0.56960118988E+02  0.99863018128E+01 0.  0.
         22    1    3    3    0    0 -0.29055836522E+02 -0.33404745373E+02  0.68492444058E+02  0.81555708215E+02  0.00000000000E+00 0. -1.
         22    1    4    4    0    0  0.50476280624E+01  0.12724577640E+02  0.10917766454E+02  0.17509741561E+02  0.00000000000E+00 0. -1.
         22    1    4    4    0    0  0.24008208460E+02  0.20680167733E+02  0.23500401449E+02  0.39450377428E+02  0.00000000000E+00 0. -1.
<mgrwt>
<rscale>  0 0.92714833E+02</rscale>
<asrwt>0</asrwt>
<pdfrwt beam="1">  1        1 0.18571264E-01 0.92714833E+02</pdfrwt>
<pdfrwt beam="2">  1       -1 0.27388629E-02 0.92714833E+02</pdfrwt>
<totfact> 0.10305808E+05</totfact>
</mgrwt>
</event>
<event>
 7    1  0.3565607E-009  0.9558016E+02  0.7818608E-02  0.1289875E+00
          1   -1    0    0  501    0  0.00000000000E+00  0.00000000000E+00  0.23147532030E+04  0.23147532030E+04  0.50400000000E-02 0. -1.
         -1   -1    0    0    0  501 -0.00000000000E+00 -0.00000000000E+00 -0.98666106908E+00  0.98667394151E+00  0.50400000000E-02 0.  1.
         23    2    1    2    0    0  0.17763568394E-14  0.17763568394E-14  0.23137665420E+04  0.23157398770E+04  0.95580160722E+02 0.  0.
    9000005    2    3    3    0    0 -0.12293743313E+02 -0.10803747928E+02  0.22446448558E+04  0.22447070353E+04  0.33598697725E+01 0.  0.
         22    1    3    3    0    0  0.12293743313E+02  0.10803747928E+02  0.69121686188E+02  0.71032841668E+02  0.00000000000E+00 0.  1.
         22    1    4    4    0    0 -0.87152013329E+01 -0.92704890413E+01  0.18113949705E+04  0.18114396583E+04  0.00000000000E+00 0. -1.
         22    1    4    4    0    0 -0.35785419797E+01 -0.15332588868E+01  0.43324988532E+03  0.43326737700E+03  0.00000000000E+00 0. -1.
<mgrwt>
<rscale>  0 0.95580161E+02</rscale>
<asrwt>0</asrwt>
<pdfrwt beam="1">  1        1 0.35611532E+00 0.95580161E+02</pdfrwt>
<pdfrwt beam="2">  1       -1 0.15179524E-03 0.95580161E+02</pdfrwt>
<totfact> 0.54485855E+04</totfact>
</mgrwt>
</event>
<event>
 7    1  0.3565607E-009  0.9223975E+02  0.7818608E-02  0.1297517E+00
         -1   -1    0    0    0  501 -0.00000000000E+00  0.00000000000E+00  0.66909501857E+01  0.66909520839E+01  0.50400000000E-02 0.  1.
          1   -1    0    0  501    0  0.00000000000E+00 -0.00000000000E+00 -0.31789843761E+03  0.31789843765E+03  0.50400000000E-02 0. -1.
         23    2    1    2    0    0  0.00000000000E+00  0.17763568394E-14 -0.31120748742E+03  0.32458938973E+03  0.92239751185E+02 0.  0.
    9000005    2    3    3    0    0 -0.40649156489E+02 -0.15942600904E+02 -0.20076267572E+03  0.20582669829E+03  0.12347360817E+02 0.  0.
         22    1    3    3    0    0  0.40649156489E+02  0.15942600904E+02 -0.11044481170E+03  0.11876269144E+03  0.00000000000E+00 0.  1.
         22    1    4    4    0    0 -0.29819001914E+02 -0.57574064566E+01 -0.12700285132E+03  0.13058347846E+03  0.00000000000E+00 0. -1.
         22    1    4    4    0    0 -0.10830154575E+02 -0.10185194448E+02 -0.73759824407E+02  0.75243219832E+02  0.00000000000E+00 0. -1.
<mgrwt>
<rscale>  0 0.92239751E+02</rscale>
<asrwt>0</asrwt>
<pdfrwt beam="2">  1        1 0.48907440E-01 0.92239751E+02</pdfrwt>
<pdfrwt beam="1">  1       -1 0.10293773E-02 0.92239751E+02</pdfrwt>
<totfact> 0.12559105E+05</totfact>
</mgrwt>
</event>
<event>
 7    1  0.3565607E-009  0.9233649E+02  0.7818608E-02  0.1297290E+00
         -1   -1    0    0    0  501 -0.00000000000E+00  0.00000000000E+00  0.60812883751E+02  0.60812883960E+02  0.50400000000E-02 0.  1.
          1   -1    0    0  501    0  0.00000000000E+00 -0.00000000000E+00 -0.35050248849E+02  0.35050249212E+02  0.50400000000E-02 0. -1.
         23    2    1    2    0    0  0.00000000000E+00  0.00000000000E+00  0.25762634902E+02  0.95863133171E+02  0.92336487611E+02 0.  0.
    9000005    2    3    3    0    0  0.18764080540E+02 -0.16944267579E+02 -0.25129036045E+02  0.39037425133E+02  0.15913930569E+02 0.  0.
         22    1    3    3    0    0 -0.18764080540E+02  0.16944267579E+02  0.50891670947E+02  0.56825708038E+02  0.00000000000E+00 0.  1.
         22    1    4    4    0    0  0.14566199005E+02 -0.18165984121E+02 -0.14216390427E+02  0.27281548514E+02  0.00000000000E+00 0. -1.
         22    1    4    4    0    0  0.41978815347E+01  0.12217165424E+01 -0.10912645619E+02  0.11755876619E+02  0.00000000000E+00 0. -1.
<mgrwt>
<rscale>  0 0.92336488E+02</rscale>
<asrwt>0</asrwt>
<pdfrwt beam="2">  1        1 0.53923461E-02 0.92336488E+02</pdfrwt>
<pdfrwt beam="1">  1       -1 0.93558282E-02 0.92336488E+02</pdfrwt>
<totfact> 0.85699513E+04</totfact>
</mgrwt>
</event>
<event>
 7    1  0.3565607E-009  0.9170895E+02  0.7818608E-02  0.1298765E+00
         -1   -1    0    0    0  501 -0.00000000000E+00  0.00000000000E+00  0.15799984756E+02  0.15799985560E+02  0.50400000000E-02 0.  1.
          1   -1    0    0  501    0  0.00000000000E+00 -0.00000000000E+00 -0.13307816281E+03  0.13307816290E+03  0.50400000000E-02 0. -1.
         23    2    1    2    0    0  0.00000000000E+00  0.00000000000E+00 -0.11727817805E+03  0.14887814846E+03  0.91708952905E+02 0.  0.
    9000005    2    3    3    0    0  0.38099872970E+02  0.23597190264E+02 -0.73376229494E+02  0.86142123758E+02  0.52883572124E+01 0.  0.
         22    1    3    3    0    0 -0.38099872970E+02 -0.23597190264E+02 -0.43901948556E+02  0.62736024705E+02  0.00000000000E+00 0. -1.
         22    1    4    4    0    0  0.28711569520E+02  0.16788604873E+02 -0.58317052300E+02  0.67134864763E+02  0.00000000000E+00 0. -1.
         22    1    4    4    0    0  0.93883034506E+01  0.68085853910E+01 -0.15059177195E+02  0.19007258995E+02  0.00000000000E+00 0. -1.
<mgrwt>
<rscale>  0 0.91708953E+02</rscale>
<asrwt>0</asrwt>
<pdfrwt beam="2">  1        1 0.20473563E-01 0.91708953E+02</pdfrwt>
<pdfrwt beam="1">  1       -1 0.24307670E-02 0.91708953E+02</pdfrwt>
<totfact> 0.10800834E+05</totfact>
</mgrwt>
</event>
<event>
 7    1  0.3565607E-009  0.9257830E+02  0.7818608E-02  0.1296725E+00
          1   -1    0    0  501    0  0.00000000000E+00  0.00000000000E+00  0.24955388800E+03  0.24955388805E+03  0.50400000000E-02 0. -1.
         -1   -1    0    0    0  501 -0.00000000000E+00 -0.00000000000E+00 -0.85860629415E+01  0.85860644207E+01  0.50400000000E-02 0.  1.
         23    2    1    2    0    0  0.00000000000E+00  0.00000000000E+00  0.24096782505E+03  0.25813995247E+03  0.92578303876E+02 0.  0.
    9000005    2    3    3    0    0  0.22256742824E+02  0.39721879695E+02  0.13494403826E+03  0.14275263214E+03  0.97585957726E+01 0.  0.
         22    1    3    3    0    0 -0.22256742824E+02 -0.39721879695E+02  0.10602378679E+03  0.11538732033E+03  0.00000000000E+00 0. -1.
         22    1    4    4    0    0  0.22165697460E+02  0.35782047472E+02  0.11593427709E+03  0.12333867872E+03  0.00000000000E+00 0. -1.
         22    1    4    4    0    0  0.91045363896E-01  0.39398322229E+01  0.19009761176E+02  0.19413953414E+02  0.00000000000E+00 0. -1.
<mgrwt>
<rscale>  0 0.92578304E+02</rscale>
<asrwt>0</asrwt>
<pdfrwt beam="1">  1        1 0.38392903E-01 0.92578304E+02</pdfrwt>
<pdfrwt beam="2">  1       -1 0.13209330E-02 0.92578304E+02</pdfrwt>
<totfact> 0.11868300E+05</totfact>
</mgrwt>
</event>
<event>
 7    1  0.3565607E-009  0.8452027E+02  0.7818608E-02  0.1316692E+00
         -1   -1    0    0    0  501 -0.00000000000E+00  0.00000000000E+00  0.12760123525E+02  0.12760124520E+02  0.50400000000E-02 0.  1.
          1   -1    0    0  501    0  0.00000000000E+00 -0.00000000000E+00 -0.13996094943E+03  0.13996094952E+03  0.50400000000E-02 0. -1.
         23    2    1    2    0    0  0.00000000000E+00  0.00000000000E+00 -0.12720082590E+03  0.15272107404E+03  0.84520271800E+02 0.  0.
    9000005    2    3    3    0    0  0.33036159897E+02 -0.25966157829E+02 -0.58503005167E+02  0.72191453482E+02  0.48347832470E+01 0.  0.
         22    1    3    3    0    0 -0.33036159897E+02  0.25966157829E+02 -0.68697820736E+02  0.80529620557E+02  0.00000000000E+00 0.  1.
         22    1    4    4    0    0  0.24485452966E+02 -0.21184879083E+02 -0.42507719232E+02  0.53434471112E+02  0.00000000000E+00 0. -1.
         22    1    4    4    0    0  0.85507069317E+01 -0.47812787466E+01 -0.15995285935E+02  0.18756982370E+02  0.00000000000E+00 0. -1.
<mgrwt>
<rscale>  0 0.84520272E+02</rscale>
<asrwt>0</asrwt>
<pdfrwt beam="2">  1        1 0.21532453E-01 0.84520272E+02</pdfrwt>
<pdfrwt beam="1">  1       -1 0.19630961E-02 0.84520272E+02</pdfrwt>
<totfact> 0.13575167E+05</totfact>
</mgrwt>
</event>
<event>
 7    1  0.3565607E-009  0.9177253E+02  0.7818608E-02  0.1298615E+00
         -1   -1    0    0    0  501 -0.00000000000E+00  0.00000000000E+00  0.52482743089E+02  0.52482743331E+02  0.50400000000E-02 0.  1.
          1   -1    0    0  501    0  0.00000000000E+00 -0.00000000000E+00 -0.40118889031E+02  0.40118889347E+02  0.50400000000E-02 0. -1.
         23    2    1    2    0    0  0.00000000000E+00  0.33306690739E-15  0.12363854059E+02  0.92601632679E+02  0.91772531226E+02 0.  0.
    9000005    2    3    3    0    0  0.27058890725E+02 -0.68007881602E+00  0.43362272319E+02  0.51448892683E+02  0.58357367269E+01 0.  0.
         22    1    3    3    0    0 -0.27058890725E+02  0.68007881602E+00 -0.30998418260E+02  0.41152739995E+02  0.00000000000E+00 0. -1.
         22    1    4    4    0    0  0.13671011243E+02 -0.29051086085E+01  0.24594342730E+02  0.28288122927E+02  0.00000000000E+00 0. -1.
         22    1    4    4    0    0  0.13387879482E+02  0.22250297924E+01  0.18767929590E+02  0.23160769756E+02  0.00000000000E+00 0. -1.
<mgrwt>
<rscale>  0 0.91772531E+02</rscale>
<asrwt>0</asrwt>
<pdfrwt beam="2">  1        1 0.61721368E-02 0.91772531E+02</pdfrwt>
<pdfrwt beam="1">  1       -1 0.80742682E-02 0.91772531E+02</pdfrwt>
<totfact> 0.89049049E+04</totfact>
</mgrwt>
</event>
<event>
 7    1  0.3565607E-009  0.9068637E+02  0.7818608E-02  0.1301198E+00
         -1   -1    0    0    0  501 -0.00000000000E+00  0.00000000000E+00  0.25915090379E+01  0.25915139388E+01  0.50400000000E-02 0.  1.
          1   -1    0    0  501    0  0.00000000000E+00 -0.00000000000E+00 -0.79336102934E+03  0.79336102935E+03  0.50400000000E-02 0. -1.
         23    2    1    2    0    0 -0.35527136788E-14  0.35527136788E-14 -0.79076952030E+03  0.79595254329E+03  0.90686365781E+02 0.  0.
    9000005    2    3    3    0    0 -0.30310905796E+02  0.26298112856E+02 -0.56794171493E+03  0.56954014832E+03  0.14416908264E+02 0.  0.
         22    1    3    3    0    0  0.30310905796E+02 -0.26298112856E+02 -0.22282780537E+03  0.22641239497E+03  0.00000000000E+00 0.  1.
         22    1    4    4    0    0 -0.21158521763E+02  0.88590521732E+01 -0.31074033562E+03  0.31158581808E+03  0.00000000000E+00 0.  1.
         22    1    4    4    0    0 -0.91523840336E+01  0.17439060683E+02 -0.25720137931E+03  0.25795433024E+03  0.00000000000E+00 0.  1.
<mgrwt>
<rscale>  0 0.90686366E+02</rscale>
<asrwt>0</asrwt>
<pdfrwt beam="2">  1        1 0.12205535E+00 0.90686366E+02</pdfrwt>
<pdfrwt beam="1">  1       -1 0.39869471E-03 0.90686366E+02</pdfrwt>
<totfact> 0.14342858E+05</totfact>
</mgrwt>
</event>
<event>
 7    1  0.3565607E-009  0.9962913E+02  0.7818608E-02  0.1281078E+00
          1   -1    0    0  501    0  0.00000000000E+00  0.00000000000E+00  0.23395303747E+02  0.23395304290E+02  0.50400000000E-02 0. -1.
         -1   -1    0    0    0  501 -0.00000000000E+00 -0.00000000000E+00 -0.10606790771E+03  0.10606790783E+03  0.50400000000E-02 0.  1.
         23    2    1    2    0    0  0.00000000000E+00  0.00000000000E+00 -0.82672603963E+02  0.12946321212E+03  0.99629131515E+02 0.  0.
    9000005    2    3    3    0    0  0.12301300971E+01  0.48272567130E+02 -0.25730307703E+02  0.54802787123E+02  0.30891397749E+01 0.  0.
         22    1    3    3    0    0 -0.12301300971E+01 -0.48272567130E+02 -0.56942296260E+02  0.74660424997E+02  0.00000000000E+00 0.  1.
         22    1    4    4    0    0 -0.29844229699E+00  0.29893464285E+01 -0.23682018960E+01  0.38253941096E+01  0.00000000000E+00 0.  1.
         22    1    4    4    0    0  0.15285723941E+01  0.45283220702E+02 -0.23362105807E+02  0.50977393013E+02  0.00000000000E+00 0.  1.
<mgrwt>
<rscale>  0 0.99629132E+02</rscale>
<asrwt>0</asrwt>
<pdfrwt beam="1">  1        1 0.35992776E-02 0.99629132E+02</pdfrwt>
<pdfrwt beam="2">  1       -1 0.16318139E-01 0.99629132E+02</pdfrwt>
<totfact> 0.63995462E+04</totfact>
</mgrwt>
</event>
<event>
 7    1  0.3565607E-009  0.9123814E+02  0.7818608E-02  0.1299881E+00
          1   -1    0    0  501    0  0.00000000000E+00  0.00000000000E+00  0.69182903876E+02  0.69182904060E+02  0.50400000000E-02 0. -1.
         -1   -1    0    0    0  501 -0.00000000000E+00 -0.00000000000E+00 -0.30081124523E+02  0.30081124945E+02  0.50400000000E-02 0.  1.
         23    2    1    2    0    0  0.00000000000E+00  0.00000000000E+00  0.39101779353E+02  0.99264029005E+02  0.91238140631E+02 0.  0.
    9000005    2    3    3    0    0  0.30561200191E+02  0.25824513722E+02 -0.26594863484E+01  0.41428955053E+02  0.10411195080E+02 0.  0.
         22    1    3    3    0    0 -0.30561200191E+02 -0.25824513722E+02  0.41761265702E+02  0.57835073953E+02  0.00000000000E+00 0. -1.
         22    1    4    4    0    0  0.18577404707E+02  0.15830259922E+02 -0.66994881469E+01  0.25310081712E+02  0.00000000000E+00 0. -1.
         22    1    4    4    0    0  0.11983795484E+02  0.99942538005E+01  0.40400017984E+01  0.16118873341E+02  0.00000000000E+00 0. -1.
<mgrwt>
<rscale>  0 0.91238141E+02</rscale>
<asrwt>0</asrwt>
<pdfrwt beam="1">  1        1 0.10643524E-01 0.91238141E+02</pdfrwt>
<pdfrwt beam="2">  1       -1 0.46278654E-02 0.91238141E+02</pdfrwt>
<totfact> 0.98305824E+04</totfact>
</mgrwt>
</event>
<event>
 7    1  0.3565607E-009  0.9216120E+02  0.7818608E-02  0.1297701E+00
          1   -1    0    0  501    0  0.00000000000E+00  0.00000000000E+00  0.22971173084E+03  0.22971173089E+03  0.50400000000E-02 0. -1.
         -1   -1    0    0    0  501 -0.00000000000E+00 -0.00000000000E+00 -0.92438536842E+01  0.92438550581E+01  0.50400000000E-02 0.  1.
         23    2    1    2    0    0 -0.71054273576E-14  0.00000000000E+00  0.22046787715E+03  0.23895558595E+03  0.92161202253E+02 0.  0.
    9000005    2    3    3    0    0  0.37588461560E+02 -0.13379352954E+02  0.53219532011E+02  0.67014001450E+02  0.81644519061E+01 0.  0.
         22    1    3    3    0    0 -0.37588461560E+02  0.13379352954E+02  0.16724834514E+03  0.17194158450E+03  0.00000000000E+00 0. -1.
         22    1    4    4    0    0  0.35411691639E+02 -0.13573255383E+02  0.46823777447E+02  0.60255184846E+02  0.00000000000E+00 0. -1.
         22    1    4    4    0    0  0.21767699213E+01  0.19390242913E+00  0.63957545638E+01  0.67588166037E+01  0.00000000000E+00 0. -1.
<mgrwt>
<rscale>  0 0.92161202E+02</rscale>
<asrwt>0</asrwt>
<pdfrwt beam="1">  1        1 0.35340262E-01 0.92161202E+02</pdfrwt>
<pdfrwt beam="2">  1       -1 0.14221316E-02 0.92161202E+02</pdfrwt>
<totfact> 0.11819563E+05</totfact>
</mgrwt>
</event>
<event>
 7    1  0.3565607E-009  0.8991056E+02  0.7818608E-02  0.1303068E+00
         -1   -1    0    0    0  501 -0.00000000000E+00  0.00000000000E+00  0.12338748240E+02  0.12338749269E+02  0.50400000000E-02 0.  1.
          1   -1    0    0  501    0  0.00000000000E+00 -0.00000000000E+00 -0.16379111316E+03  0.16379111323E+03  0.50400000000E-02 0. -1.
         23    2    1    2    0    0  0.00000000000E+00  0.00000000000E+00 -0.15145236492E+03  0.17612986250E+03  0.89910564600E+02 0.  0.
    9000005    2    3    3    0    0 -0.28094652317E+02  0.31272268410E+02 -0.51561627766E+02  0.67753556843E+02  0.12832721715E+02 0.  0.
         22    1    3    3    0    0  0.28094652317E+02 -0.31272268410E+02 -0.99890737150E+02  0.10837630566E+03  0.00000000000E+00 0. -1.
         22    1    4    4    0    0 -0.14734130685E+02  0.22878433370E+02 -0.39149902456E+02  0.47678424710E+02  0.00000000000E+00 0.  1.
         22    1    4    4    0    0 -0.13360521633E+02  0.83938350392E+01 -0.12411725310E+02  0.20075132132E+02  0.00000000000E+00 0.  1.
<mgrwt>
<rscale>  0 0.89910565E+02</rscale>
<asrwt>0</asrwt>
<pdfrwt beam="2">  1        1 0.25198631E-01 0.89910565E+02</pdfrwt>
<pdfrwt beam="1">  1       -1 0.18982692E-02 0.89910565E+02</pdfrwt>
<totfact> 0.11834390E+05</totfact>
</mgrwt>
</event>
<event>
 7    1  0.3565607E-009  0.9105220E+02  0.7818608E-02  0.1300323E+00
          1   -1    0    0  501    0  0.00000000000E+00  0.00000000000E+00  0.90260321508E+02  0.90260321648E+02  0.50400000000E-02 0. -1.
         -1   -1    0    0    0  501 -0.00000000000E+00 -0.00000000000E+00 -0.22962758347E+02  0.22962758901E+02  0.50400000000E-02 0.  1.
         23    2    1    2    0    0 -0.71054273576E-14  0.00000000000E+00  0.67297563160E+02  0.11322308055E+03  0.91052204595E+02 0.  0.
    9000005    2    3    3    0    0  0.42378272465E+02  0.11847686682E+02  0.22646962236E+02  0.50533672993E+02  0.10221621728E+02 0.  0.
         22    1    3    3    0    0 -0.42378272465E+02 -0.11847686682E+02  0.44650600924E+02  0.62689407556E+02  0.00000000000E+00 0. -1.
         22    1    4    4    0    0  0.22925940329E+01  0.19738260353E+01  0.45352523430E+01  0.54516502485E+01  0.00000000000E+00 0. -1.
         22    1    4    4    0    0  0.40085678432E+02  0.98738606467E+01  0.18111709893E+02  0.45082022744E+02  0.00000000000E+00 0. -1.
<mgrwt>
<rscale>  0 0.91052205E+02</rscale>
<asrwt>0</asrwt>
<pdfrwt beam="1">  1        1 0.13886203E-01 0.91052205E+02</pdfrwt>
<pdfrwt beam="2">  1       -1 0.35327321E-02 0.91052205E+02</pdfrwt>
<totfact> 0.10309372E+05</totfact>
</mgrwt>
</event>
<event>
 7    1  0.3565607E-009  0.9115917E+02  0.7818608E-02  0.1300069E+00
         -1   -1    0    0    0  501 -0.00000000000E+00  0.00000000000E+00  0.31967710540E+03  0.31967710544E+03  0.50400000000E-02 0.  1.
          1   -1    0    0  501    0  0.00000000000E+00 -0.00000000000E+00 -0.64987400638E+01  0.64987420182E+01  0.50400000000E-02 0. -1.
         23    2    1    2    0    0  0.00000000000E+00  0.71054273576E-14  0.31317836534E+03  0.32617584746E+03  0.91159173703E+02 0.  0.
    9000005    2    3    3    0    0 -0.43049054760E+01 -0.40966263079E+02  0.22533508008E+03  0.22915415047E+03  0.62417498570E+01 0.  0.
         22    1    3    3    0    0  0.43049054760E+01  0.40966263079E+02  0.87843285259E+02  0.97021696991E+02  0.00000000000E+00 0. -1.
         22    1    4    4    0    0 -0.37580024303E+01 -0.38182257790E+02  0.21654309064E+03  0.21991570543E+03  0.00000000000E+00 0.  1.
         22    1    4    4    0    0 -0.54690304570E+00 -0.27840052893E+01  0.87919894385E+01  0.92384450358E+01  0.00000000000E+00 0.  1.
<mgrwt>
<rscale>  0 0.91159174E+02</rscale>
<asrwt>0</asrwt>
<pdfrwt beam="2">  1        1 0.99980632E-03 0.91159174E+02</pdfrwt>
<pdfrwt beam="1">  1       -1 0.49181093E-01 0.91159174E+02</pdfrwt>
<totfact> 0.59080301E+04</totfact>
</mgrwt>
</event>
<event>
 7    1  0.3565607E-009  0.9344726E+02  0.7818608E-02  0.1294712E+00
          1   -1    0    0  501    0  0.00000000000E+00  0.00000000000E+00  0.64321852914E+02  0.64321853111E+02  0.50400000000E-02 0. -1.
         -1   -1    0    0    0  501 -0.00000000000E+00 -0.00000000000E+00 -0.33940216390E+02  0.33940216764E+02  0.50400000000E-02 0.  1.
         23    2    1    2    0    0 -0.35527136788E-14  0.35527136788E-14  0.30381636524E+02  0.98262069875E+02  0.93447260732E+02 0.  0.
    9000005    2    3    3    0    0 -0.28269101983E+02  0.21106404568E+02 -0.15007940850E+02  0.40774365321E+02  0.13881215296E+02 0.  0.
         22    1    3    3    0    0  0.28269101983E+02 -0.21106404568E+02  0.45389577374E+02  0.57487704554E+02  0.00000000000E+00 0. -1.
         22    1    4    4    0    0 -0.12309309747E+02  0.15039882783E+02 -0.13438296426E+02  0.23628478398E+02  0.00000000000E+00 0.  1.
         22    1    4    4    0    0 -0.15959792236E+02  0.60665217854E+01 -0.15696444244E+01  0.17145886924E+02  0.00000000000E+00 0.  1.
<mgrwt>
<rscale>  0 0.93447261E+02</rscale>
<asrwt>0</asrwt>
<pdfrwt beam="1">  1        1 0.98956696E-02 0.93447261E+02</pdfrwt>
<pdfrwt beam="2">  1       -1 0.52215719E-02 0.93447261E+02</pdfrwt>
<totfact> 0.90971236E+04</totfact>
</mgrwt>
</event>
<event>
 7    1  0.3565607E-009  0.8888910E+02  0.7818608E-02  0.1305564E+00
          1   -1    0    0  501    0  0.00000000000E+00  0.00000000000E+00  0.18157756955E+02  0.18157757654E+02  0.50400000000E-02 0. -1.
         -1   -1    0    0    0  501 -0.00000000000E+00 -0.00000000000E+00 -0.10878644738E+03  0.10878644750E+03  0.50400000000E-02 0.  1.
         23    2    1    2    0    0  0.00000000000E+00  0.22204460493E-15 -0.90628690424E+02  0.12694420515E+03  0.88889097719E+02 0.  0.
    9000005    2    3    3    0    0  0.32347111063E+02 -0.16331218343E+01 -0.87914499118E+02  0.94442366502E+02  0.11891120819E+02 0.  0.
         22    1    3    3    0    0 -0.32347111063E+02  0.16331218343E+01 -0.27141913062E+01  0.32501838648E+02  0.00000000000E+00 0. -1.
         22    1    4    4    0    0  0.20772020144E+02 -0.42725506989E+01 -0.68281067159E+02  0.71498500982E+02  0.00000000000E+00 0.  1.
         22    1    4    4    0    0  0.11575090919E+02  0.26394288646E+01 -0.19633431959E+02  0.22943865520E+02  0.00000000000E+00 0.  1.
<mgrwt>
<rscale>  0 0.88889098E+02</rscale>
<asrwt>0</asrwt>
<pdfrwt beam="1">  1        1 0.27935012E-02 0.88889098E+02</pdfrwt>
<pdfrwt beam="2">  1       -1 0.16736376E-01 0.88889098E+02</pdfrwt>
<totfact> 0.85498367E+04</totfact>
</mgrwt>
</event>
<event>
 7    1  0.3565607E-009  0.9038169E+02  0.7818608E-02  0.1301930E+00
         -1   -1    0    0    0  501 -0.00000000000E+00  0.00000000000E+00  0.23625770094E+01  0.23625823852E+01  0.50400000000E-02 0.  1.
          1   -1    0    0  501    0  0.00000000000E+00 -0.00000000000E+00 -0.86439946326E+03  0.86439946328E+03  0.50400000000E-02 0. -1.
         23    2    1    2    0    0 -0.17763568394E-14  0.71054273576E-14 -0.86203688625E+03  0.86676204566E+03  0.90381693610E+02 0.  0.
    9000005    2    3    3    0    0 -0.10651557262E+02  0.39380847043E+02 -0.61663159510E+03  0.61798892873E+03  0.33889765864E+01 0.  0.
         22    1    3    3    0    0  0.10651557262E+02 -0.39380847043E+02 -0.24540529115E+03  0.24877311694E+03  0.00000000000E+00 0.  1.
         22    1    4    4    0    0 -0.13729936938E+00  0.41893932631E+01 -0.68637161646E+02  0.68765033454E+02  0.00000000000E+00 0.  1.
         22    1    4    4    0    0 -0.10514257893E+02  0.35191453780E+02 -0.54799443346E+03  0.54922389527E+03  0.00000000000E+00 0.  1.
<mgrwt>
<rscale>  0 0.90381694E+02</rscale>
<asrwt>0</asrwt>
<pdfrwt beam="2">  1        1 0.13298428E+00 0.90381694E+02</pdfrwt>
<pdfrwt beam="1">  1       -1 0.36347449E-03 0.90381694E+02</pdfrwt>
<totfact> 0.14334000E+05</totfact>
</mgrwt>
</event>
<event>
 7    1  0.3565607E-009  0.9083357E+02  0.7818608E-02  0.1300846E+00
         -1   -1    0    0    0  501 -0.00000000000E+00  0.00000000000E+00  0.69951996082E+02  0.69951996263E+02  0.50400000000E-02 0.  1.
          1   -1    0    0  501    0  0.00000000000E+00 -0.00000000000E+00 -0.29487140280E+02  0.29487140711E+02  0.50400000000E-02 0. -1.
         23    2    1    2    0    0  0.17763568394E-14  0.00000000000E+00  0.40464855802E+02  0.99439136974E+02  0.90833569824E+02 0.  0.
    9000005    2    3    3    0    0  0.80000983740E+01  0.85859849383E+01 -0.25719175429E+02  0.32222720070E+02  0.15463084835E+02 0.  0.
         22    1    3    3    0    0 -0.80000983740E+01 -0.85859849383E+01  0.66184031231E+02  0.67216416903E+02  0.00000000000E+00 0.  1.
         22    1    4    4    0    0  0.22412174868E+01 -0.18040848482E+01 -0.17600584807E+02  0.17834190857E+02  0.00000000000E+00 0. -1.
         22    1    4    4    0    0  0.57588808872E+01  0.10390069787E+02 -0.81185906221E+01  0.14388529214E+02  0.00000000000E+00 0. -1.
<mgrwt>
<rscale>  0 0.90833570E+02</rscale>
<asrwt>0</asrwt>
<pdfrwt beam="2">  1        1 0.45364832E-02 0.90833570E+02</pdfrwt>
<pdfrwt beam="1">  1       -1 0.10761846E-01 0.90833570E+02</pdfrwt>
<totfact> 0.87384978E+04</totfact>
</mgrwt>
</event>
<event>
 7    1  0.3565607E-009  0.1120458E+03  0.7818608E-02  0.1256828E+00
          1   -1    0    0  501    0  0.00000000000E+00  0.00000000000E+00  0.25506597020E+03  0.25506597025E+03  0.50400000000E-02 0. -1.
         -1   -1    0    0    0  501 -0.00000000000E+00 -0.00000000000E+00 -0.12304912982E+02  0.12304914014E+02  0.50400000000E-02 0.  1.
         23    2    1    2    0    0  0.00000000000E+00  0.00000000000E+00  0.24276105722E+03  0.26737088426E+03  0.11204578908E+03 0.  0.
    9000005    2    3    3    0    0  0.27124798444E+02  0.36724302180E+02  0.50400945267E+02  0.69666959844E+02  0.15126167685E+02 0.  0.
         22    1    3    3    0    0 -0.27124798444E+02 -0.36724302180E+02  0.19236011195E+03  0.19770392442E+03  0.00000000000E+00 0. -1.
         22    1    4    4    0    0  0.16398936496E+01 -0.13978473335E+01  0.14779201959E+01  0.26129440207E+01  0.00000000000E+00 0. -1.
         22    1    4    4    0    0  0.25484904794E+02  0.38122149514E+02  0.48923025071E+02  0.67054015824E+02  0.00000000000E+00 0. -1.
<mgrwt>
<rscale>  0 0.11204579E+03</rscale>
<asrwt>0</asrwt>
<pdfrwt beam="1">  1        1 0.39240919E-01 0.11204579E+03</pdfrwt>
<pdfrwt beam="2">  1       -1 0.18930636E-02 0.11204579E+03</pdfrwt>
<totfact> 0.71148507E+04</totfact>
</mgrwt>
</event>
<event>
 7    1  0.3565607E-009  0.9092728E+02  0.7818608E-02  0.1300622E+00
          1   -1    0    0  501    0  0.00000000000E+00  0.00000000000E+00  0.11872996465E+02  0.11872997535E+02  0.50400000000E-02 0. -1.
         -1   -1    0    0    0  501 -0.00000000000E+00 -0.00000000000E+00 -0.17408768560E+03  0.17408768568E+03  0.50400000000E-02 0.  1.
         23    2    1    2    0    0  0.00000000000E+00  0.00000000000E+00 -0.16221468914E+03  0.18596068321E+03  0.90927280439E+02 0.  0.
    9000005    2    3    3    0    0  0.34421370791E+02  0.12813390644E+02 -0.33367179872E+02  0.51980481722E+02  0.15478631739E+02 0.  0.
         22    1    3    3    0    0 -0.34421370791E+02 -0.12813390644E+02 -0.12884750927E+03  0.13398020149E+03  0.00000000000E+00 0.  1.
         22    1    4    4    0    0  0.75941642357E+01  0.10353514090E+02 -0.92781036131E+01  0.15841394860E+02  0.00000000000E+00 0.  1.
         22    1    4    4    0    0  0.26827206555E+02  0.24598765539E+01 -0.24089076259E+02  0.36139086862E+02  0.00000000000E+00 0.  1.
<mgrwt>
<rscale>  0 0.90927280E+02</rscale>
<asrwt>0</asrwt>
<pdfrwt beam="1">  1        1 0.18266151E-02 0.90927280E+02</pdfrwt>
<pdfrwt beam="2">  1       -1 0.26782719E-01 0.90927280E+02</pdfrwt>
<totfact> 0.72613315E+04</totfact>
</mgrwt>
</event>
<event>
 7    1  0.3565607E-009  0.9203354E+02  0.7818608E-02  0.1298001E+00
          1   -1    0    0  501    0  0.00000000000E+00  0.00000000000E+00  0.10414458465E+03  0.10414458477E+03  0.50400000000E-02 0. -1.
         -1   -1    0    0    0  501 -0.00000000000E+00 -0.00000000000E+00 -0.20332722044E+02  0.20332722668E+02  0.50400000000E-02 0.  1.
         23    2    1    2    0    0  0.00000000000E+00 -0.35527136788E-14  0.83811862602E+02  0.12447730744E+03  0.92033536028E+02 0.  0.
    9000005    2    3    3    0    0 -0.37311391147E+02  0.20392759471E+02  0.23984959582E+02  0.51079331489E+02  0.15027151130E+02 0.  0.
         22    1    3    3    0    0  0.37311391147E+02 -0.20392759471E+02  0.59826903019E+02  0.73397975946E+02  0.00000000000E+00 0. -1.
         22    1    4    4    0    0 -0.33179164652E+02  0.16039097775E+02  0.25589970824E+02  0.44865980779E+02  0.00000000000E+00 0. -1.
         22    1    4    4    0    0 -0.41322264944E+01  0.43536616966E+01 -0.16050112417E+01  0.62133507108E+01  0.00000000000E+00 0. -1.
<mgrwt>
<rscale>  0 0.92033536E+02</rscale>
<asrwt>0</asrwt>
<pdfrwt beam="1">  1        1 0.16022244E-01 0.92033536E+02</pdfrwt>
<pdfrwt beam="2">  1       -1 0.31281111E-02 0.92033536E+02</pdfrwt>
<totfact> 0.10251471E+05</totfact>
</mgrwt>
</event>
<event>
 7    1  0.3565607E-009  0.9201229E+02  0.7818608E-02  0.1298051E+00
          1   -1    0    0  501    0  0.00000000000E+00  0.00000000000E+00  0.27147835324E+02  0.27147835791E+02  0.50400000000E-02 0. -1.
         -1   -1    0    0    0  501 -0.00000000000E+00 -0.00000000000E+00 -0.77964429445E+02  0.77964429608E+02  0.50400000000E-02 0.  1.
         23    2    1    2    0    0 -0.35527136788E-14  0.00000000000E+00 -0.50816594121E+02  0.10511226540E+03  0.92012293196E+02 0.  0.
    9000005    2    3    3    0    0  0.18049252707E+02 -0.24924809715E+02  0.12805253918E+02  0.34438640824E+02  0.86616275198E+01 0.  0.
         22    1    3    3    0    0 -0.18049252707E+02  0.24924809715E+02 -0.63621848039E+02  0.70673624575E+02  0.00000000000E+00 0.  1.
         22    1    4    4    0    0  0.12185613146E+02 -0.22106457404E+02  0.11767304254E+02  0.27850566890E+02  0.00000000000E+00 0. -1.
         22    1    4    4    0    0  0.58636395613E+01 -0.28183523110E+01  0.10379496639E+01  0.65880739339E+01  0.00000000000E+00 0. -1.
<mgrwt>
<rscale>  0 0.92012293E+02</rscale>
<asrwt>0</asrwt>
<pdfrwt beam="1">  1        1 0.41765901E-02 0.92012293E+02</pdfrwt>
<pdfrwt beam="2">  1       -1 0.11994528E-01 0.92012293E+02</pdfrwt>
<totfact> 0.83055814E+04</totfact>
</mgrwt>
</event>
<event>
 7    1  0.3565607E-009  0.9202465E+02  0.7818608E-02  0.1298021E+00
         -1   -1    0    0    0  501 -0.00000000000E+00  0.00000000000E+00  0.11100454284E+03  0.11100454295E+03  0.50400000000E-02 0.  1.
          1   -1    0    0  501    0  0.00000000000E+00 -0.00000000000E+00 -0.19072499126E+02  0.19072499792E+02  0.50400000000E-02 0. -1.
         23    2    1    2    0    0  0.35527136788E-14  0.00000000000E+00  0.91932043715E+02  0.13007704275E+03  0.92024650980E+02 0.  0.
    9000005    2    3    3    0    0  0.20835921585E+02 -0.20315667100E+02 -0.71822183693E+00  0.32964048432E+02  0.15467730551E+02 0.  0.
         22    1    3    3    0    0 -0.20835921585E+02  0.20315667100E+02  0.92650265552E+02  0.97112994315E+02  0.00000000000E+00 0.  1.
         22    1    4    4    0    0  0.57235909421E+01 -0.41341307967E+01 -0.70069506747E+01  0.99472553237E+01  0.00000000000E+00 0. -1.
         22    1    4    4    0    0  0.15112330643E+02 -0.16181536303E+02  0.62887288377E+01  0.23016793108E+02  0.00000000000E+00 0. -1.
<mgrwt>
<rscale>  0 0.92024651E+02</rscale>
<asrwt>0</asrwt>
<pdfrwt beam="2">  1        1 0.29342307E-02 0.92024651E+02</pdfrwt>
<pdfrwt beam="1">  1       -1 0.17077622E-01 0.92024651E+02</pdfrwt>
<totfact> 0.77880269E+04</totfact>
</mgrwt>
</event>
<event>
 7    1  0.3565607E-009  0.8798473E+02  0.7818608E-02  0.1307807E+00
          1   -1    0    0  501    0  0.00000000000E+00  0.00000000000E+00  0.49498528212E+02  0.49498528469E+02  0.50400000000E-02 0. -1.
         -1   -1    0    0    0  501 -0.00000000000E+00 -0.00000000000E+00 -0.39098699306E+02  0.39098699630E+02  0.50400000000E-02 0.  1.
         23    2    1    2    0    0 -0.35527136788E-14  0.00000000000E+00  0.10399828907E+02  0.88597228099E+02  0.87984728138E+02 0.  0.
    9000005    2    3    3    0    0 -0.26194406539E+02 -0.25208503127E+02  0.28827820581E+02  0.47839327749E+02  0.11659437215E+02 0.  0.
         22    1    3    3    0    0  0.26194406539E+02  0.25208503127E+02 -0.18427991674E+02  0.40757900351E+02  0.00000000000E+00 0.  1.
         22    1    4    4    0    0 -0.97070172193E+01 -0.53475469809E+01  0.14711914976E+02  0.18419090213E+02  0.00000000000E+00 0. -1.
         22    1    4    4    0    0 -0.16487389320E+02 -0.19860956146E+02  0.14115905605E+02  0.29420237536E+02  0.00000000000E+00 0. -1.
<mgrwt>
<rscale>  0 0.87984728E+02</rscale>
<asrwt>0</asrwt>
<pdfrwt beam="1">  1        1 0.76151582E-02 0.87984728E+02</pdfrwt>
<pdfrwt beam="2">  1       -1 0.60151845E-02 0.87984728E+02</pdfrwt>
<totfact> 0.10339492E+05</totfact>
</mgrwt>
</event>
<event>
 7    1  0.3565607E-009  0.9157852E+02  0.7818608E-02  0.1299073E+00
         -1   -1    0    0    0  501 -0.00000000000E+00  0.00000000000E+00  0.51763679878E+02  0.51763680123E+02  0.50400000000E-02 0.  1.
          1   -1    0    0  501    0  0.00000000000E+00 -0.00000000000E+00 -0.40504388155E+02  0.40504388469E+02  0.50400000000E-02 0. -1.
         23    2    1    2    0    0  0.00000000000E+00  0.00000000000E+00  0.11259291722E+02  0.92268068592E+02  0.91578517304E+02 0.  0.
    9000005    2    3    3    0    0 -0.22594583013E+01  0.38278427563E+02  0.30230679575E+02  0.49486568787E+02  0.80425949949E+01 0.  0.
         22    1    3    3    0    0  0.22594583013E+01 -0.38278427563E+02 -0.18971387853E+02  0.42781499805E+02  0.00000000000E+00 0. -1.
         22    1    4    4    0    0 -0.34943661748E+01  0.31759596997E+02  0.28008618369E+02  0.42489590482E+02  0.00000000000E+00 0.  1.
         22    1    4    4    0    0  0.12349078736E+01  0.65188305651E+01  0.22220612061E+01  0.69969783047E+01  0.00000000000E+00 0.  1.
<mgrwt>
<rscale>  0 0.91578517E+02</rscale>
<asrwt>0</asrwt>
<pdfrwt beam="2">  1        1 0.62314444E-02 0.91578517E+02</pdfrwt>
<pdfrwt beam="1">  1       -1 0.79636431E-02 0.91578517E+02</pdfrwt>
<totfact> 0.89714629E+04</totfact>
</mgrwt>
</event>
<event>
 7    1  0.3565607E-009  0.9137730E+02  0.7818608E-02  0.1299550E+00
         -1   -1    0    0    0  501 -0.00000000000E+00  0.00000000000E+00  0.20609044546E+02  0.20609045162E+02  0.50400000000E-02 0.  1.
          1   -1    0    0  501    0  0.00000000000E+00 -0.00000000000E+00 -0.10128818646E+03  0.10128818659E+03  0.50400000000E-02 0. -1.
         23    2    1    2    0    0  0.00000000000E+00 -0.35527136788E-14 -0.80679141918E+02  0.12189723175E+03  0.91377301164E+02 0.  0.
    9000005    2    3    3    0    0  0.37970573611E+02  0.24974690812E+02 -0.43341231718E+02  0.63078704231E+02  0.59127759232E+01 0.  0.
         22    1    3    3    0    0 -0.37970573611E+02 -0.24974690812E+02 -0.37337910200E+02  0.58818527520E+02  0.00000000000E+00 0.  1.
         22    1    4    4    0    0  0.20527244655E+02  0.11752934677E+02 -0.26034235478E+02  0.35175000548E+02  0.00000000000E+00 0. -1.
         22    1    4    4    0    0  0.17443328957E+02  0.13221756135E+02 -0.17306996240E+02  0.27903703683E+02  0.00000000000E+00 0. -1.
<mgrwt>
<rscale>  0 0.91377301E+02</rscale>
<asrwt>0</asrwt>
<pdfrwt beam="2">  1        1 0.15582798E-01 0.91377301E+02</pdfrwt>
<pdfrwt beam="1">  1       -1 0.31706224E-02 0.91377301E+02</pdfrwt>
<totfact> 0.10404933E+05</totfact>
</mgrwt>
</event>
<event>
 7    1  0.3565607E-009  0.9052788E+02  0.7818608E-02  0.1301578E+00
         -1   -1    0    0    0  501 -0.00000000000E+00  0.00000000000E+00  0.11223918349E+03  0.11223918360E+03  0.50400000000E-02 0.  1.
          1   -1    0    0  501    0  0.00000000000E+00 -0.00000000000E+00 -0.18254091554E+02  0.18254092250E+02  0.50400000000E-02 0. -1.
         23    2    1    2    0    0  0.11102230246E-15  0.35527136788E-14  0.93985091932E+02  0.13049327585E+03  0.90527882645E+02 0.  0.
    9000005    2    3    3    0    0 -0.79751633419E+00  0.30669375633E+02  0.94171131677E+02  0.99812968732E+02  0.12376592899E+02 0.  0.
         22    1    3    3    0    0  0.79751633419E+00 -0.30669375633E+02 -0.18603974461E+00  0.30680307117E+02  0.00000000000E+00 0. -1.
         22    1    4    4    0    0  0.31151875250E+01  0.38123819914E+01  0.73333163210E+01  0.88326767193E+01  0.00000000000E+00 0.  1.
         22    1    4    4    0    0 -0.39127038592E+01  0.26856993641E+02  0.86837815356E+02  0.90980292012E+02  0.00000000000E+00 0.  1.
<mgrwt>
<rscale>  0 0.90527883E+02</rscale>
<asrwt>0</asrwt>
<pdfrwt beam="2">  1        1 0.28083218E-02 0.90527883E+02</pdfrwt>
<pdfrwt beam="1">  1       -1 0.17267567E-01 0.90527883E+02</pdfrwt>
<totfact> 0.81072361E+04</totfact>
</mgrwt>
</event>
<event>
 7    1  0.3565607E-009  0.9457463E+02  0.7818608E-02  0.1292137E+00
         -1   -1    0    0    0  501 -0.00000000000E+00  0.00000000000E+00  0.29089730999E+02  0.29089731435E+02  0.50400000000E-02 0.  1.
          1   -1    0    0  501    0  0.00000000000E+00 -0.00000000000E+00 -0.76868710457E+02  0.76868710622E+02  0.50400000000E-02 0. -1.
         23    2    1    2    0    0  0.00000000000E+00  0.00000000000E+00 -0.47778979458E+02  0.10595844206E+03  0.94574629606E+02 0.  0.
    9000005    2    3    3    0    0  0.40344750994E+02 -0.13177510616E+02 -0.45097341291E+02  0.63431545838E+02  0.13727530624E+02 0.  0.
         22    1    3    3    0    0 -0.40344750994E+02  0.13177510616E+02 -0.26816381666E+01  0.42526896219E+02  0.00000000000E+00 0.  1.
         22    1    4    4    0    0  0.11715769983E+02  0.21540429714E+01 -0.14991446560E+02  0.19147914701E+02  0.00000000000E+00 0. -1.
         22    1    4    4    0    0  0.28628981011E+02 -0.15331553587E+02 -0.30105894731E+02  0.44283631137E+02  0.00000000000E+00 0. -1.
<mgrwt>
<rscale>  0 0.94574630E+02</rscale>
<asrwt>0</asrwt>
<pdfrwt beam="2">  1        1 0.11825955E-01 0.94574630E+02</pdfrwt>
<pdfrwt beam="1">  1       -1 0.44753433E-02 0.94574630E+02</pdfrwt>
<totfact> 0.90503317E+04</totfact>
</mgrwt>
</event>
<event>
 7    1  0.3565607E-009  0.9130725E+02  0.7818608E-02  0.1299717E+00
          1   -1    0    0  501    0  0.00000000000E+00  0.00000000000E+00  0.22339004773E+03  0.22339004778E+03  0.50400000000E-02 0. -1.
         -1   -1    0    0    0  501 -0.00000000000E+00 -0.00000000000E+00 -0.93301087076E+01  0.93301100688E+01  0.50400000000E-02 0.  1.
         23    2    1    2    0    0  0.00000000000E+00  0.00000000000E+00  0.21405993902E+03  0.23272015785E+03  0.91307252603E+02 0.  0.
    9000005    2    3    3    0    0  0.58921252970E+01  0.42944769951E+02  0.72680556149E+02  0.84844871522E+02  0.61007028065E+01 0.  0.
         22    1    3    3    0    0 -0.58921252970E+01 -0.42944769951E+02  0.14137938287E+03  0.14787528633E+03  0.00000000000E+00 0.  1.
         22    1    4    4    0    0  0.64328582984E-01  0.22656347355E+02  0.38485067933E+02  0.44658869975E+02  0.00000000000E+00 0. -1.
         22    1    4    4    0    0  0.58277967141E+01  0.20288422596E+02  0.34195488216E+02  0.40186001547E+02  0.00000000000E+00 0. -1.
<mgrwt>
<rscale>  0 0.91307253E+02</rscale>
<asrwt>0</asrwt>
<pdfrwt beam="1">  1        1 0.34367698E-01 0.91307253E+02</pdfrwt>
<pdfrwt beam="2">  1       -1 0.14354015E-02 0.91307253E+02</pdfrwt>
<totfact> 0.12052158E+05</totfact>
</mgrwt>
</event>
<event>
 7    1  0.3565607E-009  0.9238451E+02  0.7818608E-02  0.1297178E+00
         -1   -1    0    0    0  501 -0.00000000000E+00  0.00000000000E+00  0.60093484617E+01  0.60093505752E+01  0.50400000000E-02 0.  1.
          1   -1    0    0  501    0  0.00000000000E+00 -0.00000000000E+00 -0.35506746793E+03  0.35506746796E+03  0.50400000000E-02 0. -1.
         23    2    1    2    0    0  0.88817841970E-15  0.00000000000E+00 -0.34905811947E+03  0.36107681854E+03  0.92384512343E+02 0.  0.
    9000005    2    3    3    0    0 -0.70610747759E+01 -0.43377331606E+02 -0.22746647138E+03  0.23178652286E+03  0.72487861014E+01 0.  0.
         22    1    3    3    0    0  0.70610747759E+01  0.43377331606E+02 -0.12159164808E+03  0.12929029568E+03  0.00000000000E+00 0. -1.
         22    1    4    4    0    0 -0.38836868606E+01 -0.26654065194E+02 -0.12047518634E+03  0.12344955545E+03  0.00000000000E+00 0. -1.
         22    1    4    4    0    0 -0.31773879153E+01 -0.16723266412E+02 -0.10699128504E+03  0.10833696741E+03  0.00000000000E+00 0. -1.
<mgrwt>
<rscale>  0 0.92384512E+02</rscale>
<asrwt>0</asrwt>
<pdfrwt beam="2">  1        1 0.54625748E-01 0.92384512E+02</pdfrwt>
<pdfrwt beam="1">  1       -1 0.92451559E-03 0.92384512E+02</pdfrwt>
<totfact> 0.12762055E+05</totfact>
</mgrwt>
</event>
<event>
 7    1  0.3565607E-009  0.9061229E+02  0.7818608E-02  0.1301376E+00
          1   -1    0    0  501    0  0.00000000000E+00  0.00000000000E+00  0.35515838132E+03  0.35515838136E+03  0.50400000000E-02 0. -1.
         -1   -1    0    0    0  501 -0.00000000000E+00 -0.00000000000E+00 -0.57795234453E+01  0.57795256428E+01  0.50400000000E-02 0.  1.
         23    2    1    2    0    0  0.00000000000E+00 -0.35527136788E-14  0.34937885788E+03  0.36093790700E+03  0.90612286025E+02 0.  0.
    9000005    2    3    3    0    0  0.65432075082E+01  0.27088056310E+02  0.31627670261E+03  0.31766748937E+03  0.10252064431E+02 0.  0.
         22    1    3    3    0    0 -0.65432075082E+01 -0.27088056310E+02  0.33102155262E+02  0.43270417633E+02  0.00000000000E+00 0.  1.
         22    1    4    4    0    0  0.50623433885E+01  0.20457390181E+02  0.27758320995E+03  0.27838205865E+03  0.00000000000E+00 0.  1.
         22    1    4    4    0    0  0.14808641197E+01  0.66306661289E+01  0.38693492666E+02  0.39285430716E+02  0.00000000000E+00 0.  1.
<mgrwt>
<rscale>  0 0.90612286E+02</rscale>
<asrwt>0</asrwt>
<pdfrwt beam="1">  1        1 0.54639764E-01 0.90612286E+02</pdfrwt>
<pdfrwt beam="2">  1       -1 0.88915742E-03 0.90612286E+02</pdfrwt>
<totfact> 0.13437541E+05</totfact>
</mgrwt>
</event>
<event>
 7    1  0.3565607E-009  0.9091568E+02  0.7818608E-02  0.1300649E+00
          1   -1    0    0  501    0  0.00000000000E+00  0.00000000000E+00  0.49684794478E+03  0.49684794481E+03  0.50400000000E-02 0. -1.
         -1   -1    0    0    0  501 -0.00000000000E+00 -0.00000000000E+00 -0.41590484263E+01  0.41590514801E+01  0.50400000000E-02 0.  1.
         23    2    1    2    0    0  0.00000000000E+00  0.00000000000E+00  0.49268889635E+03  0.50100699629E+03  0.90915684769E+02 0.  0.
    9000005    2    3    3    0    0 -0.29205178241E+02 -0.15226938013E+02  0.41862964622E+03  0.41995408389E+03  0.50842703432E+01 0.  0.
         22    1    3    3    0    0  0.29205178241E+02  0.15226938013E+02  0.74059250134E+02  0.81052912395E+02  0.00000000000E+00 0.  1.
         22    1    4    4    0    0 -0.94943922978E+01 -0.67662881239E+01  0.17113123104E+03  0.17152791137E+03  0.00000000000E+00 0.  1.
         22    1    4    4    0    0 -0.19710785943E+02 -0.84606498894E+01  0.24749841518E+03  0.24842617253E+03  0.00000000000E+00 0.  1.
<mgrwt>
<rscale>  0 0.90915685E+02</rscale>
<asrwt>0</asrwt>
<pdfrwt beam="1">  1        1 0.76438105E-01 0.90915685E+02</pdfrwt>
<pdfrwt beam="2">  1       -1 0.63985418E-03 0.90915685E+02</pdfrwt>
<totfact> 0.14022218E+05</totfact>
</mgrwt>
</event>
<event>
 7    1  0.3565607E-009  0.9234290E+02  0.7818608E-02  0.1297275E+00
          1   -1    0    0  501    0  0.00000000000E+00  0.00000000000E+00  0.21631199282E+03  0.21631199287E+03  0.50400000000E-02 0. -1.
         -1   -1    0    0    0  501 -0.00000000000E+00 -0.00000000000E+00 -0.98552225243E+01  0.98552238130E+01  0.50400000000E-02 0.  1.
         23    2    1    2    0    0  0.00000000000E+00  0.00000000000E+00  0.20645677029E+03  0.22616721669E+03  0.92342903923E+02 0.  0.
    9000005    2    3    3    0    0 -0.40423294791E+02  0.19216203585E+02  0.12406679353E+03  0.13240467879E+03  0.11624305011E+02 0.  0.
         22    1    3    3    0    0  0.40423294791E+02 -0.19216203585E+02  0.82389976762E+02  0.93762537897E+02  0.00000000000E+00 0.  1.
         22    1    4    4    0    0 -0.36727168631E+02  0.18497622517E+02  0.12005564494E+03  0.12690313170E+03  0.00000000000E+00 0.  1.
         22    1    4    4    0    0 -0.36961261598E+01  0.71858106849E+00  0.40111485919E+01  0.55015470885E+01  0.00000000000E+00 0.  1.
<mgrwt>
<rscale>  0 0.92342904E+02</rscale>
<asrwt>0</asrwt>
<pdfrwt beam="1">  1        1 0.33278767E-01 0.92342904E+02</pdfrwt>
<pdfrwt beam="2">  1       -1 0.15161882E-02 0.92342904E+02</pdfrwt>
<totfact> 0.11619750E+05</totfact>
</mgrwt>
</event>
<event>
 7    1  0.3565607E-009  0.9455660E+02  0.7818608E-02  0.1292178E+00
          1   -1    0    0  501    0  0.00000000000E+00  0.00000000000E+00  0.19179056201E+02  0.19179056863E+02  0.50400000000E-02 0. -1.
         -1   -1    0    0    0  501 -0.00000000000E+00 -0.00000000000E+00 -0.11654575596E+03  0.11654575607E+03  0.50400000000E-02 0.  1.
         23    2    1    2    0    0  0.00000000000E+00  0.00000000000E+00 -0.97366699759E+02  0.13572481293E+03  0.94556600105E+02 0.  0.
    9000005    2    3    3    0    0  0.38255177433E+02  0.14541697924E+02 -0.16951203785E+02  0.45494155327E+02  0.10366063873E+02 0.  0.
         22    1    3    3    0    0 -0.38255177433E+02 -0.14541697924E+02 -0.80415495974E+02  0.90230657604E+02  0.00000000000E+00 0.  1.
         22    1    4    4    0    0  0.19335399590E+02  0.12177528785E+02 -0.65307654810E+01  0.23765537704E+02  0.00000000000E+00 0.  1.
         22    1    4    4    0    0  0.18919777844E+02  0.23641691392E+01 -0.10420438304E+02  0.21728617624E+02  0.00000000000E+00 0.  1.
<mgrwt>
<rscale>  0 0.94556600E+02</rscale>
<asrwt>0</asrwt>
<pdfrwt beam="1">  1        1 0.29506242E-02 0.94556600E+02</pdfrwt>
<pdfrwt beam="2">  1       -1 0.17930116E-01 0.94556600E+02</pdfrwt>
<totfact> 0.71896440E+04</totfact>
</mgrwt>
</event>
<event>
 7    1  0.3565607E-009  0.9091094E+02  0.7818608E-02  0.1300661E+00
         -1   -1    0    0    0  501 -0.00000000000E+00  0.00000000000E+00  0.84603215086E+01  0.84603230099E+01  0.50400000000E-02 0.  1.
          1   -1    0    0  501    0  0.00000000000E+00 -0.00000000000E+00 -0.24422234121E+03  0.24422234126E+03  0.50400000000E-02 0. -1.
         23    2    1    2    0    0 -0.35527136788E-14  0.00000000000E+00 -0.23576201970E+03  0.25268266427E+03  0.90910939330E+02 0.  0.
    9000005    2    3    3    0    0  0.23137364818E+02  0.15095088429E+02 -0.21753001855E+03  0.21958273661E+03  0.11578855778E+02 0.  0.
         22    1    3    3    0    0 -0.23137364818E+02 -0.15095088429E+02 -0.18232001155E+02  0.33099927666E+02  0.00000000000E+00 0.  1.
         22    1    4    4    0    0  0.23393496375E+02  0.11297645609E+02 -0.19666449581E+03  0.19837292250E+03  0.00000000000E+00 0. -1.
         22    1    4    4    0    0 -0.25613155703E+00  0.37974428200E+01 -0.20865522738E+02  0.21209814107E+02  0.00000000000E+00 0. -1.
<mgrwt>
<rscale>  0 0.90910939E+02</rscale>
<asrwt>0</asrwt>
<pdfrwt beam="2">  1        1 0.37572663E-01 0.90910939E+02</pdfrwt>
<pdfrwt beam="1">  1       -1 0.13015882E-02 0.90910939E+02</pdfrwt>
<totfact> 0.12407239E+05</totfact>
</mgrwt>
</event>
<event>
 7    1  0.3565607E-009  0.9120469E+02  0.7818608E-02  0.1299960E+00
         -1   -1    0    0    0  501 -0.00000000000E+00  0.00000000000E+00  0.96895205067E+01  0.96895218175E+01  0.50400000000E-02 0.  1.
          1   -1    0    0  501    0  0.00000000000E+00 -0.00000000000E+00 -0.21462092622E+03  0.21462092628E+03  0.50400000000E-02 0. -1.
         23    2    1    2    0    0  0.00000000000E+00 -0.35527136788E-14 -0.20493140571E+03  0.22431044810E+03  0.91204693288E+02 0.  0.
    9000005    2    3    3    0    0 -0.12896203935E+02  0.24693668735E+02 -0.19022663941E+03  0.19280934488E+03  0.14600677490E+02 0.  0.
         22    1    3    3    0    0  0.12896203935E+02 -0.24693668735E+02 -0.14704766308E+02  0.31501103214E+02  0.00000000000E+00 0.  1.
         22    1    4    4    0    0 -0.47148607438E+01  0.11913936746E+01 -0.61984713608E+02  0.62175188393E+02  0.00000000000E+00 0. -1.
         22    1    4    4    0    0 -0.81813431910E+01  0.23502275061E+02 -0.12824192580E+03  0.13063415649E+03  0.00000000000E+00 0. -1.
<mgrwt>
<rscale>  0 0.91204693E+02</rscale>
<asrwt>0</asrwt>
<pdfrwt beam="2">  1        1 0.33018601E-01 0.91204693E+02</pdfrwt>
<pdfrwt beam="1">  1       -1 0.14906957E-02 0.91204693E+02</pdfrwt>
<totfact> 0.11994394E+05</totfact>
</mgrwt>
</event>
<event>
 7    1  0.3565607E-009  0.9176147E+02  0.7818608E-02  0.1298641E+00
         -1   -1    0    0    0  501 -0.00000000000E+00  0.00000000000E+00  0.10627000607E+03  0.10627000619E+03  0.50400000000E-02 0.  1.
          1   -1    0    0  501    0  0.00000000000E+00 -0.00000000000E+00 -0.19808429163E+02  0.19808429804E+02  0.50400000000E-02 0. -1.
         23    2    1    2    0    0 -0.71054273576E-14  0.35527136788E-14  0.86461576910E+02  0.12607843600E+03  0.91761471988E+02 0.  0.
    9000005    2    3    3    0    0  0.32406171645E+02 -0.31191008318E+02  0.53046356121E+02  0.70046160110E+02  0.83372470183E+01 0.  0.
         22    1    3    3    0    0 -0.32406171645E+02  0.31191008318E+02  0.33415220789E+02  0.56032275886E+02  0.00000000000E+00 0.  1.
         22    1    4    4    0    0  0.16816413203E+02 -0.21778393280E+02  0.32882603389E+02  0.42876051270E+02  0.00000000000E+00 0.  1.
         22    1    4    4    0    0  0.15589758442E+02 -0.94126150382E+01  0.20163752732E+02  0.27170108839E+02  0.00000000000E+00 0.  1.
<mgrwt>
<rscale>  0 0.91761472E+02</rscale>
<asrwt>0</asrwt>
<pdfrwt beam="2">  1        1 0.30474507E-02 0.91761472E+02</pdfrwt>
<pdfrwt beam="1">  1       -1 0.16349232E-01 0.91761472E+02</pdfrwt>
<totfact> 0.79125473E+04</totfact>
</mgrwt>
</event>
<event>
 7    1  0.3565607E-009  0.9627327E+02  0.7818608E-02  0.1288334E+00
          1   -1    0    0  501    0  0.00000000000E+00  0.00000000000E+00  0.90130407898E+02  0.90130408039E+02  0.50400000000E-02 0. -1.
         -1   -1    0    0    0  501 -0.00000000000E+00 -0.00000000000E+00 -0.25708697392E+02  0.25708697886E+02  0.50400000000E-02 0.  1.
         23    2    1    2    0    0  0.00000000000E+00 -0.17763568394E-14  0.64421710506E+02  0.11583910593E+03  0.96273265640E+02 0.  0.
    9000005    2    3    3    0    0 -0.39324916900E+02 -0.12555816002E+02  0.60667966647E+02  0.74388072191E+02  0.12201864720E+02 0.  0.
         22    1    3    3    0    0  0.39324916900E+02  0.12555816002E+02  0.37537438598E+01  0.41451033734E+02  0.00000000000E+00 0.  1.
         22    1    4    4    0    0 -0.25847940113E+02 -0.26652107540E+01  0.41398587112E+02  0.48878035674E+02  0.00000000000E+00 0. -1.
         22    1    4    4    0    0 -0.13476976787E+02 -0.98906052476E+01  0.19269379534E+02  0.25510036518E+02  0.00000000000E+00 0. -1.
<mgrwt>
<rscale>  0 0.96273266E+02</rscale>
<asrwt>0</asrwt>
<pdfrwt beam="1">  1        1 0.13866216E-01 0.96273266E+02</pdfrwt>
<pdfrwt beam="2">  1       -1 0.39551843E-02 0.96273266E+02</pdfrwt>
<totfact> 0.88435520E+04</totfact>
</mgrwt>
</event>
<event>
 7    1  0.3565607E-009  0.8945428E+02  0.7818608E-02  0.1304179E+00
          1   -1    0    0  501    0  0.00000000000E+00  0.00000000000E+00  0.63779713613E+03  0.63779713615E+03  0.50400000000E-02 0. -1.
         -1   -1    0    0    0  501 -0.00000000000E+00 -0.00000000000E+00 -0.31366019432E+01  0.31366059924E+01  0.50400000000E-02 0.  1.
         23    2    1    2    0    0  0.00000000000E+00  0.35527136788E-14  0.63466053419E+03  0.64093374214E+03  0.89454279732E+02 0.  0.
    9000005    2    3    3    0    0  0.21777698648E+02  0.31912925146E+02  0.47849053785E+03  0.48005561838E+03  0.27384257415E+01 0.  0.
         22    1    3    3    0    0 -0.21777698648E+02 -0.31912925146E+02  0.15616999634E+03  0.16087812377E+03  0.00000000000E+00 0. -1.
         22    1    4    4    0    0  0.50350568092E+01  0.94417894772E+01  0.12755031579E+03  0.12799836813E+03  0.00000000000E+00 0.  1.
         22    1    4    4    0    0  0.16742641839E+02  0.22471135669E+02  0.35094022205E+03  0.35205725024E+03  0.00000000000E+00 0.  1.
<mgrwt>
<rscale>  0 0.89454280E+02</rscale>
<asrwt>0</asrwt>
<pdfrwt beam="1">  1        1 0.98122649E-01 0.89454280E+02</pdfrwt>
<pdfrwt beam="2">  1       -1 0.48255440E-03 0.89454280E+02</pdfrwt>
<totfact> 0.14934113E+05</totfact>
</mgrwt>
</event>
<event>
 7    1  0.3565607E-009  0.9268602E+02  0.7818608E-02  0.1296474E+00
         -1   -1    0    0    0  501 -0.00000000000E+00  0.00000000000E+00  0.46918269624E+03  0.46918269627E+03  0.50400000000E-02 0.  1.
          1   -1    0    0  501    0  0.00000000000E+00 -0.00000000000E+00 -0.45774786463E+01  0.45774814209E+01  0.50400000000E-02 0. -1.
         23    2    1    2    0    0  0.00000000000E+00  0.44408920985E-15  0.46460521760E+03  0.47376017769E+03  0.92686017002E+02 0.  0.
    9000005    2    3    3    0    0 -0.46016741836E+02  0.32150714658E+01  0.22764208583E+03  0.23234890407E+03  0.61005547826E+01 0.  0.
         22    1    3    3    0    0  0.46016741836E+02 -0.32150714658E+01  0.23696313177E+03  0.24141127362E+03  0.00000000000E+00 0. -1.
         22    1    4    4    0    0 -0.23974325715E+02  0.34691889632E+01  0.13143689950E+03  0.13365052232E+03  0.00000000000E+00 0. -1.
         22    1    4    4    0    0 -0.22042416121E+02 -0.25411749733E+00  0.96205186326E+02  0.98698381750E+02  0.00000000000E+00 0. -1.
<mgrwt>
<rscale>  0 0.92686017E+02</rscale>
<asrwt>0</asrwt>
<pdfrwt beam="2">  1        1 0.70422796E-03 0.92686017E+02</pdfrwt>
<pdfrwt beam="1">  1       -1 0.72181926E-01 0.92686017E+02</pdfrwt>
<totfact> 0.46809540E+04</totfact>
</mgrwt>
</event>
<event>
 7    1  0.3565607E-009  0.9077933E+02  0.7818608E-02  0.1300975E+00
         -1   -1    0    0    0  501 -0.00000000000E+00  0.00000000000E+00  0.57177242379E+02  0.57177242601E+02  0.50400000000E-02 0. -1.
          1   -1    0    0  501    0  0.00000000000E+00 -0.00000000000E+00 -0.36032193208E+02  0.36032193561E+02  0.50400000000E-02 0.  1.
         23    2    1    2    0    0  0.00000000000E+00  0.00000000000E+00  0.21145049171E+02  0.93209436162E+02  0.90779325208E+02 0.  0.
    9000005    2    3    3    0    0  0.72775355836E+01 -0.36336549345E+02 -0.14574220659E+02  0.41739312987E+02  0.12508197243E+02 0.  0.
         22    1    3    3    0    0 -0.72775355836E+01  0.36336549345E+02  0.35719269830E+02  0.51470123175E+02  0.00000000000E+00 0. -1.
         22    1    4    4    0    0  0.22470545022E+01 -0.15722557050E+00  0.35212243413E+00  0.22799043893E+01  0.00000000000E+00 0. -1.
         22    1    4    4    0    0  0.50304810815E+01 -0.36179323775E+02 -0.14926343093E+02  0.39459408597E+02  0.00000000000E+00 0. -1.
<mgrwt>
<rscale>  0 0.90779325E+02</rscale>
<asrwt>0</asrwt>
<pdfrwt beam="2">  1        1 0.55434144E-02 0.90779325E+02</pdfrwt>
<pdfrwt beam="1">  1       -1 0.87964988E-02 0.90779325E+02</pdfrwt>
<totfact> 0.90338422E+04</totfact>
</mgrwt>
</event>
<event>
 7    1  0.3565607E-009  0.9087669E+02  0.7818608E-02  0.1300742E+00
         -1   -1    0    0    0  501 -0.00000000000E+00  0.00000000000E+00  0.10803763252E+02  0.10803764427E+02  0.50400000000E-02 0.  1.
          1   -1    0    0  501    0  0.00000000000E+00 -0.00000000000E+00 -0.19110404478E+03  0.19110404484E+03  0.50400000000E-02 0. -1.
         23    2    1    2    0    0  0.00000000000E+00  0.00000000000E+00 -0.18030028153E+03  0.20190780927E+03  0.90876685274E+02 0.  0.
    9000005    2    3    3    0    0 -0.12602928498E+02 -0.29127041300E+02 -0.23590056373E+02  0.42016242861E+02  0.14200547976E+02 0.  0.
         22    1    3    3    0    0  0.12602928498E+02  0.29127041300E+02 -0.15671022515E+03  0.15989156641E+03  0.00000000000E+00 0. -1.
         22    1    4    4    0    0 -0.19750930023E+01  0.12637071854E+01 -0.29682547914E+01  0.37826557766E+01  0.00000000000E+00 0. -1.
         22    1    4    4    0    0 -0.10627835496E+02 -0.30390748486E+02 -0.20621801582E+02  0.38233587084E+02  0.00000000000E+00 0. -1.
<mgrwt>
<rscale>  0 0.90876685E+02</rscale>
<asrwt>0</asrwt>
<pdfrwt beam="2">  1        1 0.29400620E-01 0.90876685E+02</pdfrwt>
<pdfrwt beam="1">  1       -1 0.16621177E-02 0.90876685E+02</pdfrwt>
<totfact> 0.11841153E+05</totfact>
</mgrwt>
</event>
<event>
 7    1  0.3565607E-009  0.9268101E+02  0.7818608E-02  0.1296486E+00
          1   -1    0    0  501    0  0.00000000000E+00  0.00000000000E+00  0.49645787242E+02  0.49645787498E+02  0.50400000000E-02 0.  1.
         -1   -1    0    0    0  501 -0.00000000000E+00 -0.00000000000E+00 -0.43255283096E+02  0.43255283390E+02  0.50400000000E-02 0. -1.
         23    2    1    2    0    0  0.00000000000E+00  0.00000000000E+00  0.63905041456E+01  0.92901070887E+02  0.92681014392E+02 0.  0.
    9000005    2    3    3    0    0  0.29958109731E+02  0.30243289083E+01  0.37123147518E+02  0.49876307406E+02  0.14243702285E+02 0.  0.
         22    1    3    3    0    0 -0.29958109731E+02 -0.30243289083E+01 -0.30732643372E+02  0.43024763482E+02  0.00000000000E+00 0. -1.
         22    1    4    4    0    0  0.70514961446E+01  0.10693584282E+00  0.19772644503E+02  0.20992677385E+02  0.00000000000E+00 0.  1.
         22    1    4    4    0    0  0.22906613586E+02  0.29173930655E+01  0.17350503015E+02  0.28883630021E+02  0.00000000000E+00 0.  1.
<mgrwt>
<rscale>  0 0.92681014E+02</rscale>
<asrwt>0</asrwt>
<pdfrwt beam="1">  1        1 0.76378135E-02 0.92681014E+02</pdfrwt>
<pdfrwt beam="2">  1       -1 0.66546590E-02 0.92681014E+02</pdfrwt>
<totfact> 0.89465848E+04</totfact>
</mgrwt>
</event>
<event>
 7    1  0.3565607E-009  0.9152353E+02  0.7818608E-02  0.1299204E+00
         -1   -1    0    0    0  501 -0.00000000000E+00  0.00000000000E+00  0.21616335561E+02  0.21616336149E+02  0.50400000000E-02 0.  1.
          1   -1    0    0  501    0  0.00000000000E+00 -0.00000000000E+00 -0.96877615243E+02  0.96877615374E+02  0.50400000000E-02 0. -1.
         23    2    1    2    0    0  0.00000000000E+00  0.17763568394E-14 -0.75261279682E+02  0.11849395152E+03  0.91523528823E+02 0.  0.
    9000005    2    3    3    0    0  0.41150296589E+02 -0.12123904036E+02 -0.21600166246E+02  0.49792779381E+02  0.13130793511E+02 0.  0.
         22    1    3    3    0    0 -0.41150296589E+02  0.12123904036E+02 -0.53661113436E+02  0.68701172142E+02  0.00000000000E+00 0. -1.
         22    1    4    4    0    0  0.38537351185E+01  0.24664091360E+01 -0.38787689428E+01  0.59982744936E+01  0.00000000000E+00 0.  1.
         22    1    4    4    0    0  0.37296561470E+02 -0.14590313172E+02 -0.17721397303E+02  0.43794504887E+02  0.00000000000E+00 0.  1.
<mgrwt>
<rscale>  0 0.91523529E+02</rscale>
<asrwt>0</asrwt>
<pdfrwt beam="2">  1        1 0.14904248E-01 0.91523529E+02</pdfrwt>
<pdfrwt beam="1">  1       -1 0.33255902E-02 0.91523529E+02</pdfrwt>
<totfact> 0.10283269E+05</totfact>
</mgrwt>
</event>
<event>
 7    1  0.3565607E-009  0.9327871E+02  0.7818608E-02  0.1295101E+00
          1   -1    0    0  501    0  0.00000000000E+00  0.00000000000E+00  0.17497815341E+03  0.17497815348E+03  0.50400000000E-02 0. -1.
         -1   -1    0    0    0  501 -0.00000000000E+00 -0.00000000000E+00 -0.12431435076E+02  0.12431436098E+02  0.50400000000E-02 0.  1.
         23    2    1    2    0    0  0.00000000000E+00 -0.35527136788E-14  0.16254671834E+03  0.18740958958E+03  0.93278714752E+02 0.  0.
    9000005    2    3    3    0    0 -0.32767685801E+02 -0.29960451180E+02  0.10288346708E+03  0.11303853730E+03  0.14877945024E+02 0.  0.
         22    1    3    3    0    0  0.32767685801E+02  0.29960451180E+02  0.59663251254E+02  0.74371052284E+02  0.00000000000E+00 0.  1.
         22    1    4    4    0    0 -0.76652478720E+01 -0.73201414424E+01  0.42856034382E+02  0.44147255619E+02  0.00000000000E+00 0. -1.
         22    1    4    4    0    0 -0.25102437929E+02 -0.22640309737E+02  0.60027432700E+02  0.68891281680E+02  0.00000000000E+00 0. -1.
<mgrwt>
<rscale>  0 0.93278715E+02</rscale>
<asrwt>0</asrwt>
<pdfrwt beam="1">  1        1 0.26919715E-01 0.93278715E+02</pdfrwt>
<pdfrwt beam="2">  1       -1 0.19125286E-02 0.93278715E+02</pdfrwt>
<totfact> 0.10852958E+05</totfact>
</mgrwt>
</event>
<event>
 7    1  0.3565607E-009  0.9242691E+02  0.7818608E-02  0.1297079E+00
          1   -1    0    0  501    0  0.00000000000E+00  0.00000000000E+00  0.32188744483E+02  0.32188744877E+02  0.50400000000E-02 0. -1.
         -1   -1    0    0    0  501 -0.00000000000E+00 -0.00000000000E+00 -0.66348768191E+02  0.66348768382E+02  0.50400000000E-02 0.  1.
         23    2    1    2    0    0  0.00000000000E+00  0.00000000000E+00 -0.34160023708E+02  0.98537513260E+02  0.92426913286E+02 0.  0.
    9000005    2    3    3    0    0 -0.44222880219E+01 -0.19272400769E+02  0.25417292955E+02  0.35764599327E+02  0.15559104123E+02 0.  0.
         22    1    3    3    0    0  0.44222880219E+01  0.19272400769E+02 -0.59577316664E+02  0.62772913932E+02  0.00000000000E+00 0.  1.
         22    1    4    4    0    0 -0.12765487235E+01 -0.18619522123E+02  0.26466310624E+02  0.32384900475E+02  0.00000000000E+00 0. -1.
         22    1    4    4    0    0 -0.31457392984E+01 -0.65287864615E+00 -0.10490176691E+01  0.33796988520E+01  0.00000000000E+00 0. -1.
<mgrwt>
<rscale>  0 0.92426913E+02</rscale>
<asrwt>0</asrwt>
<pdfrwt beam="1">  1        1 0.49521146E-02 0.92426913E+02</pdfrwt>
<pdfrwt beam="2">  1       -1 0.10207503E-01 0.92426913E+02</pdfrwt>
<totfact> 0.84310704E+04</totfact>
</mgrwt>
</event>
<event>
 7    1  0.3565607E-009  0.8633304E+02  0.7818608E-02  0.1311983E+00
          1   -1    0    0  501    0  0.00000000000E+00  0.00000000000E+00  0.15617961352E+02  0.15617962166E+02  0.50400000000E-02 0. -1.
         -1   -1    0    0    0  501 -0.00000000000E+00 -0.00000000000E+00 -0.11930803910E+03  0.11930803920E+03  0.50400000000E-02 0.  1.
         23    2    1    2    0    0 -0.22204460493E-15  0.00000000000E+00 -0.10369007774E+03  0.13492600137E+03  0.86333038998E+02 0.  0.
    9000005    2    3    3    0    0 -0.12874430858E+01  0.40604243303E+02 -0.72913108944E+02  0.83959503623E+02  0.90837607176E+01 0.  0.
         22    1    3    3    0    0  0.12874430858E+01 -0.40604243303E+02 -0.30776968800E+02  0.50966497745E+02  0.00000000000E+00 0. -1.
         22    1    4    4    0    0 -0.30569429657E+01  0.18554374551E+02 -0.41256983465E+02  0.45340361709E+02  0.00000000000E+00 0. -1.
         22    1    4    4    0    0  0.17694998799E+01  0.22049868752E+02 -0.31656125479E+02  0.38619141914E+02  0.00000000000E+00 0. -1.
<mgrwt>
<rscale>  0 0.86333039E+02</rscale>
<asrwt>0</asrwt>
<pdfrwt beam="1">  1        1 0.24027634E-02 0.86333039E+02</pdfrwt>
<pdfrwt beam="2">  1       -1 0.18355082E-01 0.86333039E+02</pdfrwt>
<totfact> 0.90513642E+04</totfact>
</mgrwt>
</event>
<event>
 7    1  0.3565607E-009  0.9067208E+02  0.7818608E-02  0.1301232E+00
         -1   -1    0    0    0  501 -0.00000000000E+00  0.00000000000E+00  0.27058315109E+02  0.27058315579E+02  0.50400000000E-02 0.  1.
          1   -1    0    0  501    0  0.00000000000E+00 -0.00000000000E+00 -0.75960247837E+02  0.75960248004E+02  0.50400000000E-02 0. -1.
         23    2    1    2    0    0  0.00000000000E+00 -0.35527136788E-14 -0.48901932727E+02  0.10301856358E+03  0.90672076287E+02 0.  0.
    9000005    2    3    3    0    0 -0.31362701994E+02 -0.31604744875E+02 -0.20948797821E+02  0.50446168488E+02  0.11112371934E+02 0.  0.
         22    1    3    3    0    0  0.31362701994E+02  0.31604744875E+02 -0.27953134906E+02  0.52572395095E+02  0.00000000000E+00 0. -1.
         22    1    4    4    0    0 -0.82187594310E+01 -0.91138557106E+01 -0.11502261564E+02  0.16819999809E+02  0.00000000000E+00 0. -1.
         22    1    4    4    0    0 -0.23143942563E+02 -0.22490889164E+02 -0.94465362575E+01  0.33626168679E+02  0.00000000000E+00 0. -1.
<mgrwt>
<rscale>  0 0.90672076E+02</rscale>
<asrwt>0</asrwt>
<pdfrwt beam="2">  1        1 0.11686192E-01 0.90672076E+02</pdfrwt>
<pdfrwt beam="1">  1       -1 0.41628178E-02 0.90672076E+02</pdfrwt>
<totfact> 0.10146343E+05</totfact>
</mgrwt>
</event>
<event>
 7    1  0.3565607E-009  0.9333098E+02  0.7818608E-02  0.1294980E+00
          1   -1    0    0  501    0  0.00000000000E+00  0.00000000000E+00  0.13658335584E+04  0.13658335584E+04  0.50400000000E-02 0. -1.
         -1   -1    0    0    0  501 -0.00000000000E+00 -0.00000000000E+00 -0.15943836556E+01  0.15943916215E+01  0.50400000000E-02 0.  1.
         23    2    1    2    0    0  0.00000000000E+00  0.17763568394E-14  0.13642391747E+04  0.13674279500E+04  0.93330984235E+02 0.  0.
    9000005    2    3    3    0    0 -0.25150651859E+02 -0.14859589119E+02  0.12120149410E+04  0.12124260790E+04  0.11975692224E+02 0.  0.
         22    1    3    3    0    0  0.25150651859E+02  0.14859589119E+02  0.15222423376E+03  0.15500187103E+03  0.00000000000E+00 0.  1.
         22    1    4    4    0    0 -0.16020383733E+02 -0.33189885032E+01  0.74394339535E+03  0.74412327195E+03  0.00000000000E+00 0.  1.
         22    1    4    4    0    0 -0.91302681255E+01 -0.11540600615E+02  0.46807154563E+03  0.46830280705E+03  0.00000000000E+00 0.  1.
<mgrwt>
<rscale>  0 0.93330984E+02</rscale>
<asrwt>0</asrwt>
<pdfrwt beam="1">  1        1 0.21012813E+00 0.93330984E+02</pdfrwt>
<pdfrwt beam="2">  1       -1 0.24529054E-03 0.93330984E+02</pdfrwt>
<totfact> 0.11129547E+05</totfact>
</mgrwt>
</event>
<event>
 7    1  0.3565607E-009  0.9328951E+02  0.7818608E-02  0.1295076E+00
         -1   -1    0    0    0  501 -0.00000000000E+00  0.00000000000E+00  0.18330829125E+02  0.18330829818E+02  0.50400000000E-02 0.  1.
          1   -1    0    0  501    0  0.00000000000E+00 -0.00000000000E+00 -0.11869257129E+03  0.11869257140E+03  0.50400000000E-02 0. -1.
         23    2    1    2    0    0  0.00000000000E+00  0.00000000000E+00 -0.10036174217E+03  0.13702340122E+03  0.93289512756E+02 0.  0.
    9000005    2    3    3    0    0  0.58867927619E+01  0.26890731144E+02  0.29345365384E+01  0.30122105879E+02  0.11872826430E+02 0.  0.
         22    1    3    3    0    0 -0.58867927619E+01 -0.26890731144E+02 -0.10329627871E+03  0.10690129534E+03  0.00000000000E+00 0. -1.
         22    1    4    4    0    0  0.54059378089E+01  0.32965213089E+01 -0.72570393866E-01  0.63321783610E+01  0.00000000000E+00 0.  1.
         22    1    4    4    0    0  0.48085495302E+00  0.23594209835E+02  0.30071069323E+01  0.23789927518E+02  0.00000000000E+00 0.  1.
<mgrwt>
<rscale>  0 0.93289513E+02</rscale>
<asrwt>0</asrwt>
<pdfrwt beam="2">  1        1 0.18260395E-01 0.93289513E+02</pdfrwt>
<pdfrwt beam="1">  1       -1 0.28201277E-02 0.93289513E+02</pdfrwt>
<totfact> 0.10104068E+05</totfact>
</mgrwt>
</event>
<event>
 7    1  0.3565607E-009  0.9031547E+02  0.7818608E-02  0.1302090E+00
          1   -1    0    0  501    0  0.00000000000E+00  0.00000000000E+00  0.10398916951E+03  0.10398916964E+03  0.50400000000E-02 0. -1.
         -1   -1    0    0    0  501 -0.00000000000E+00 -0.00000000000E+00 -0.19609937179E+02  0.19609937826E+02  0.50400000000E-02 0.  1.
         23    2    1    2    0    0  0.35527136788E-14 -0.35527136788E-14  0.84379232335E+02  0.12359910746E+03  0.90315472185E+02 0.  0.
    9000005    2    3    3    0    0 -0.31579889776E+02 -0.31475885615E+02  0.43910538122E+02  0.63385022525E+02  0.10074964458E+02 0.  0.
         22    1    3    3    0    0  0.31579889776E+02  0.31475885615E+02  0.40468694212E+02  0.60214084937E+02  0.00000000000E+00 0. -1.
         22    1    4    4    0    0 -0.22558862609E+02 -0.19515944130E+02  0.34870226478E+02  0.45887983744E+02  0.00000000000E+00 0. -1.
         22    1    4    4    0    0 -0.90210271668E+01 -0.11959941485E+02  0.90403116446E+01  0.17497038781E+02  0.00000000000E+00 0. -1.
<mgrwt>
<rscale>  0 0.90315472E+02</rscale>
<asrwt>0</asrwt>
<pdfrwt beam="1">  1        1 0.15998333E-01 0.90315472E+02</pdfrwt>
<pdfrwt beam="2">  1       -1 0.30169135E-02 0.90315472E+02</pdfrwt>
<totfact> 0.10788596E+05</totfact>
</mgrwt>
</event>
<event>
 7    1  0.3565607E-009  0.8920401E+02  0.7818608E-02  0.1304791E+00
         -1   -1    0    0    0  501 -0.00000000000E+00  0.00000000000E+00  0.22662569938E+02  0.22662570498E+02  0.50400000000E-02 0.  1.
          1   -1    0    0  501    0  0.00000000000E+00 -0.00000000000E+00 -0.87780811344E+02  0.87780811488E+02  0.50400000000E-02 0. -1.
         23    2    1    2    0    0  0.00000000000E+00  0.00000000000E+00 -0.65118241406E+02  0.11044338199E+03  0.89204009220E+02 0.  0.
    9000005    2    3    3    0    0 -0.17044917190E+02  0.16709701391E+02  0.13048291028E+02  0.28713643731E+02  0.91908712855E+01 0.  0.
         22    1    3    3    0    0  0.17044917190E+02 -0.16709701391E+02 -0.78166532433E+02  0.81729738255E+02  0.00000000000E+00 0. -1.
         22    1    4    4    0    0 -0.10192126921E+02  0.11710881793E+02  0.12971904146E+02  0.20231028168E+02  0.00000000000E+00 0. -1.
         22    1    4    4    0    0 -0.68527902691E+01  0.49988195975E+01  0.76386881640E-01  0.84826155634E+01  0.00000000000E+00 0. -1.
<mgrwt>
<rscale>  0 0.89204009E+02</rscale>
<asrwt>0</asrwt>
<pdfrwt beam="2">  1        1 0.13504740E-01 0.89204009E+02</pdfrwt>
<pdfrwt beam="1">  1       -1 0.34865493E-02 0.89204009E+02</pdfrwt>
<totfact> 0.10853987E+05</totfact>
</mgrwt>
</event>
<event>
 7    1  0.3565607E-009  0.9198227E+02  0.7818608E-02  0.1298121E+00
         -1   -1    0    0    0  501 -0.00000000000E+00  0.00000000000E+00  0.24463766453E+01  0.24463818370E+01  0.50400000000E-02 0.  1.
          1   -1    0    0  501    0  0.00000000000E+00 -0.00000000000E+00 -0.86461846356E+03  0.86461846358E+03  0.50400000000E-02 0. -1.
         23    2    1    2    0    0  0.00000000000E+00  0.00000000000E+00 -0.86217208692E+03  0.86706484541E+03  0.91982273803E+02 0.  0.
    9000005    2    3    3    0    0  0.23900029306E+02 -0.16046144907E+02 -0.76835646600E+03  0.76893197174E+03  0.74851957067E+01 0.  0.
         22    1    3    3    0    0 -0.23900029306E+02  0.16046144907E+02 -0.93815620916E+02  0.98132873672E+02  0.00000000000E+00 0.  1.
         22    1    4    4    0    0  0.16084714109E+02 -0.13596282542E+02 -0.48484463127E+03  0.48530185802E+03  0.00000000000E+00 0.  1.
         22    1    4    4    0    0  0.78153151965E+01 -0.24498623651E+01 -0.28351183473E+03  0.28363011372E+03  0.00000000000E+00 0.  1.
<mgrwt>
<rscale>  0 0.91982274E+02</rscale>
<asrwt>0</asrwt>
<pdfrwt beam="2">  1        1 0.13301798E+00 0.91982274E+02</pdfrwt>
<pdfrwt beam="1">  1       -1 0.37636673E-03 0.91982274E+02</pdfrwt>
<totfact> 0.13683541E+05</totfact>
</mgrwt>
</event>
<event>
 7    1  0.3565607E-009  0.9034939E+02  0.7818608E-02  0.1302008E+00
          1   -1    0    0  501    0  0.00000000000E+00  0.00000000000E+00  0.18600772498E+02  0.18600773181E+02  0.50400000000E-02 0. -1.
         -1   -1    0    0    0  501 -0.00000000000E+00 -0.00000000000E+00 -0.10971333541E+03  0.10971333553E+03  0.50400000000E-02 0.  1.
         23    2    1    2    0    0  0.00000000000E+00  0.00000000000E+00 -0.91112562915E+02  0.12831410871E+03  0.90349385017E+02 0.  0.
    9000005    2    3    3    0    0 -0.19968173448E+02  0.21273740719E+02 -0.94461330692E+02  0.98945515950E+02  0.39965154319E+01 0.  0.
         22    1    3    3    0    0  0.19968173448E+02 -0.21273740719E+02  0.33487677768E+01  0.29368592759E+02  0.00000000000E+00 0. -1.
         22    1    4    4    0    0 -0.57345217594E+01  0.56864153768E+01 -0.20576534728E+02  0.22104611308E+02  0.00000000000E+00 0. -1.
         22    1    4    4    0    0 -0.14233651689E+02  0.15587325342E+02 -0.73884795964E+02  0.76840904643E+02  0.00000000000E+00 0. -1.
<mgrwt>
<rscale>  0 0.90349385E+02</rscale>
<asrwt>0</asrwt>
<pdfrwt beam="1">  1        1 0.28616574E-02 0.90349385E+02</pdfrwt>
<pdfrwt beam="2">  1       -1 0.16878974E-01 0.90349385E+02</pdfrwt>
<totfact> 0.81849421E+04</totfact>
</mgrwt>
</event>
<event>
 7    1  0.3565607E-009  0.9079034E+02  0.7818608E-02  0.1300949E+00
          1   -1    0    0  501    0  0.00000000000E+00  0.00000000000E+00  0.66089829229E+03  0.66089829231E+03  0.50400000000E-02 0. -1.
         -1   -1    0    0    0  501 -0.00000000000E+00 -0.00000000000E+00 -0.31180596508E+01  0.31180637241E+01  0.50400000000E-02 0.  1.
         23    2    1    2    0    0  0.00000000000E+00  0.00000000000E+00  0.65778023264E+03  0.66401635604E+03  0.90790344360E+02 0.  0.
    9000005    2    3    3    0    0  0.18690450559E+02  0.28405378083E+02  0.54440088581E+03  0.54564797033E+03  0.14254283941E+02 0.  0.
         22    1    3    3    0    0 -0.18690450559E+02 -0.28405378083E+02  0.11337934683E+03  0.11836838570E+03  0.00000000000E+00 0. -1.
         22    1    4    4    0    0  0.76543400291E+01  0.23583407710E+02  0.35562896750E+03  0.35649225597E+03  0.00000000000E+00 0. -1.
         22    1    4    4    0    0  0.11036110530E+02  0.48219703728E+01  0.18877191831E+03  0.18915571436E+03  0.00000000000E+00 0. -1.
<mgrwt>
<rscale>  0 0.90790344E+02</rscale>
<asrwt>0</asrwt>
<pdfrwt beam="1">  1        1 0.10167658E+00 0.90790344E+02</pdfrwt>
<pdfrwt beam="2">  1       -1 0.47970219E-03 0.90790344E+02</pdfrwt>
<totfact> 0.14374082E+05</totfact>
</mgrwt>
</event>
<event>
 7    1  0.3565607E-009  0.9560134E+02  0.7818608E-02  0.1289827E+00
         -1   -1    0    0    0  501 -0.00000000000E+00  0.00000000000E+00  0.34874117884E+02  0.34874118249E+02  0.50400000000E-02 0.  1.
          1   -1    0    0  501    0  0.00000000000E+00 -0.00000000000E+00 -0.65518612304E+02  0.65518612497E+02  0.50400000000E-02 0. -1.
         23    2    1    2    0    0  0.00000000000E+00  0.00000000000E+00 -0.30644494419E+02  0.10039273075E+03  0.95601335495E+02 0.  0.
    9000005    2    3    3    0    0  0.28168567313E+02  0.36256975828E+02 -0.47081799258E+01  0.47660113798E+02  0.11886252916E+02 0.  0.
         22    1    3    3    0    0 -0.28168567313E+02 -0.36256975828E+02 -0.25936314493E+02  0.52732616948E+02  0.00000000000E+00 0.  1.
         22    1    4    4    0    0  0.45876100912E+01  0.10819213391E+02  0.29980360285E+01  0.12128056925E+02  0.00000000000E+00 0.  1.
         22    1    4    4    0    0  0.23580957222E+02  0.25437762437E+02 -0.77062159542E+01  0.35532056873E+02  0.00000000000E+00 0.  1.
<mgrwt>
<rscale>  0 0.95601335E+02</rscale>
<asrwt>0</asrwt>
<pdfrwt beam="2">  1        1 0.10079786E-01 0.95601335E+02</pdfrwt>
<pdfrwt beam="1">  1       -1 0.53652490E-02 0.95601335E+02</pdfrwt>
<totfact> 0.85628785E+04</totfact>
</mgrwt>
</event>
<event>
 7    1  0.3565607E-009  0.9345989E+02  0.7818608E-02  0.1294683E+00
         -1   -1    0    0    0  501 -0.00000000000E+00  0.00000000000E+00  0.51419006453E+02  0.51419006700E+02  0.50400000000E-02 0. -1.
          1   -1    0    0  501    0  0.00000000000E+00 -0.00000000000E+00 -0.42468493528E+02  0.42468493827E+02  0.50400000000E-02 0.  1.
         23    2    1    2    0    0  0.44408920985E-15  0.00000000000E+00  0.89505129251E+01  0.93887500527E+02  0.93459890186E+02 0.  0.
    9000005    2    3    3    0    0  0.30737445116E+01  0.10152189627E+02 -0.41000844632E+02  0.42822316876E+02  0.63377206129E+01 0.  0.
         22    1    3    3    0    0 -0.30737445116E+01 -0.10152189627E+02  0.49951357557E+02  0.51065183651E+02  0.00000000000E+00 0. -1.
         22    1    4    4    0    0 -0.11702289138E+01  0.53138989636E+01 -0.13027603814E+02  0.14118265440E+02  0.00000000000E+00 0.  1.
         22    1    4    4    0    0  0.42439734255E+01  0.48382906631E+01 -0.27973240818E+02  0.28704051436E+02  0.00000000000E+00 0.  1.
<mgrwt>
<rscale>  0 0.93459890E+02</rscale>
<asrwt>0</asrwt>
<pdfrwt beam="2">  1        1 0.65336144E-02 0.93459890E+02</pdfrwt>
<pdfrwt beam="1">  1       -1 0.79106164E-02 0.93459890E+02</pdfrwt>
<totfact> 0.85316174E+04</totfact>
</mgrwt>
</event>
<event>
 7    1  0.3565607E-009  0.8935180E+02  0.7818608E-02  0.1304429E+00
         -1   -1    0    0    0  501 -0.00000000000E+00  0.00000000000E+00  0.62835073491E+01  0.62835093704E+01  0.50400000000E-02 0.  1.
          1   -1    0    0  501    0  0.00000000000E+00 -0.00000000000E+00 -0.31764678193E+03  0.31764678197E+03  0.50400000000E-02 0. -1.
         23    2    1    2    0    0 -0.35527136788E-14 -0.44408920985E-15 -0.31136327458E+03  0.32393029134E+03  0.89351804067E+02 0.  0.
    9000005    2    3    3    0    0 -0.28075865746E+02  0.29083007619E+01 -0.28044142802E+03  0.28206296463E+03  0.10742858920E+02 0.  0.
         22    1    3    3    0    0  0.28075865746E+02 -0.29083007619E+01 -0.30921846559E+02  0.41867326704E+02  0.00000000000E+00 0.  1.
         22    1    4    4    0    0 -0.88384035694E+01 -0.30376745720E+01 -0.62727719860E+02  0.63420120493E+02  0.00000000000E+00 0.  1.
         22    1    4    4    0    0 -0.19237462177E+02  0.59459753339E+01 -0.21771370816E+03  0.21864284414E+03  0.00000000000E+00 0.  1.
<mgrwt>
<rscale>  0 0.89351804E+02</rscale>
<asrwt>0</asrwt>
<pdfrwt beam="2">  1        1 0.48868723E-01 0.89351804E+02</pdfrwt>
<pdfrwt beam="1">  1       -1 0.96669384E-03 0.89351804E+02</pdfrwt>
<totfact> 0.13666486E+05</totfact>
</mgrwt>
</event>
<event>
 7    1  0.3565607E-009  0.8938784E+02  0.7818608E-02  0.1304341E+00
         -1   -1    0    0    0  501 -0.00000000000E+00  0.00000000000E+00  0.26965322189E+02  0.26965322660E+02  0.50400000000E-02 0.  1.
          1   -1    0    0  501    0  0.00000000000E+00 -0.00000000000E+00 -0.74078345199E+02  0.74078345371E+02  0.50400000000E-02 0. -1.
         23    2    1    2    0    0  0.71054273576E-14  0.00000000000E+00 -0.47113023011E+02  0.10104366803E+03  0.89387839843E+02 0.  0.
    9000005    2    3    3    0    0 -0.41256915964E+02 -0.12705103703E+02 -0.19635717387E+02  0.49871848644E+02  0.15430071772E+02 0.  0.
         22    1    3    3    0    0  0.41256915964E+02  0.12705103703E+02 -0.27477305624E+02  0.51171819387E+02  0.00000000000E+00 0.  1.
         22    1    4    4    0    0 -0.32977929171E+02 -0.82648127588E+01 -0.21593203282E+02  0.40275518250E+02  0.00000000000E+00 0. -1.
         22    1    4    4    0    0 -0.82789867932E+01 -0.44402909442E+01  0.19574858954E+01  0.95963303935E+01  0.00000000000E+00 0. -1.
<mgrwt>
<rscale>  0 0.89387840E+02</rscale>
<asrwt>0</asrwt>
<pdfrwt beam="2">  1        1 0.11396668E-01 0.89387840E+02</pdfrwt>
<pdfrwt beam="1">  1       -1 0.41485112E-02 0.89387840E+02</pdfrwt>
<totfact> 0.10510373E+05</totfact>
</mgrwt>
</event>
<event>
 7    1  0.3565607E-009  0.9125472E+02  0.7818608E-02  0.1299841E+00
          1   -1    0    0  501    0  0.00000000000E+00  0.00000000000E+00  0.72559774191E+02  0.72559774366E+02  0.50400000000E-02 0. -1.
         -1   -1    0    0    0  501 -0.00000000000E+00 -0.00000000000E+00 -0.28691601974E+02  0.28691602417E+02  0.50400000000E-02 0.  1.
         23    2    1    2    0    0  0.00000000000E+00  0.00000000000E+00  0.43868172217E+02  0.10125137678E+03  0.91254724628E+02 0.  0.
    9000005    2    3    3    0    0  0.11826930950E+02  0.35113341655E+02  0.49638301936E+02  0.63753144093E+02  0.15089045854E+02 0.  0.
         22    1    3    3    0    0 -0.11826930950E+02 -0.35113341655E+02 -0.57701297194E+01  0.37498232690E+02  0.00000000000E+00 0.  1.
         22    1    4    4    0    0 -0.31798069587E+01  0.52495256148E+01  0.46078085185E+01  0.76746720333E+01  0.00000000000E+00 0. -1.
         22    1    4    4    0    0  0.15006737909E+02  0.29863816040E+02  0.45030493418E+02  0.56078472060E+02  0.00000000000E+00 0. -1.
<mgrwt>
<rscale>  0 0.91254725E+02</rscale>
<asrwt>0</asrwt>
<pdfrwt beam="1">  1        1 0.11163042E-01 0.91254725E+02</pdfrwt>
<pdfrwt beam="2">  1       -1 0.44140926E-02 0.91254725E+02</pdfrwt>
<totfact> 0.98983704E+04</totfact>
</mgrwt>
</event>
<event>
 7    1  0.3565607E-009  0.8797190E+02  0.7818608E-02  0.1307839E+00
         -1   -1    0    0    0  501 -0.00000000000E+00  0.00000000000E+00  0.38200773634E+02  0.38200773966E+02  0.50400000000E-02 0.  1.
          1   -1    0    0  501    0  0.00000000000E+00 -0.00000000000E+00 -0.50647241609E+02  0.50647241860E+02  0.50400000000E-02 0. -1.
         23    2    1    2    0    0 -0.35527136788E-14  0.35527136788E-14 -0.12446467976E+02  0.88848015826E+02  0.87971900919E+02 0.  0.
    9000005    2    3    3    0    0  0.30848878145E+02 -0.29345224185E+02  0.98434591199E+00  0.44202946368E+02  0.11837907984E+02 0.  0.
         22    1    3    3    0    0 -0.30848878145E+02  0.29345224185E+02 -0.13430813888E+02  0.44645069459E+02  0.00000000000E+00 0. -1.
         22    1    4    4    0    0  0.30796633354E+02 -0.27503453259E+02  0.30892920544E+01  0.41405510412E+02  0.00000000000E+00 0. -1.
         22    1    4    4    0    0  0.52244791129E-01 -0.18417709259E+01 -0.21049461424E+01  0.27974359553E+01  0.00000000000E+00 0. -1.
<mgrwt>
<rscale>  0 0.87971901E+02</rscale>
<asrwt>0</asrwt>
<pdfrwt beam="2">  1        1 0.77918834E-02 0.87971901E+02</pdfrwt>
<pdfrwt beam="1">  1       -1 0.58770421E-02 0.87971901E+02</pdfrwt>
<totfact> 0.10378293E+05</totfact>
</mgrwt>
</event>
<event>
 7    1  0.3565607E-009  0.9079887E+02  0.7818608E-02  0.1300929E+00
          1   -1    0    0  501    0  0.00000000000E+00  0.00000000000E+00  0.11256778390E+03  0.11256778401E+03  0.50400000000E-02 0. -1.
         -1   -1    0    0    0  501 -0.00000000000E+00 -0.00000000000E+00 -0.18309934530E+02  0.18309935223E+02  0.50400000000E-02 0.  1.
         23    2    1    2    0    0  0.00000000000E+00  0.00000000000E+00  0.94257849366E+02  0.13087771923E+03  0.90798872373E+02 0.  0.
    9000005    2    3    3    0    0  0.13095326830E+02 -0.41689195086E+02  0.32989063953E+02  0.55622549060E+02  0.98037264187E+01 0.  0.
         22    1    3    3    0    0 -0.13095326830E+02  0.41689195086E+02  0.61268785413E+02  0.75255170172E+02  0.00000000000E+00 0.  1.
         22    1    4    4    0    0  0.57552371477E+01 -0.32370277927E+02  0.23146621058E+02  0.40208503008E+02  0.00000000000E+00 0. -1.
         22    1    4    4    0    0  0.73400896820E+01 -0.93189171592E+01  0.98424428948E+01  0.15414046052E+02  0.00000000000E+00 0. -1.
<mgrwt>
<rscale>  0 0.90798872E+02</rscale>
<asrwt>0</asrwt>
<pdfrwt beam="1">  1        1 0.17318121E-01 0.90798872E+02</pdfrwt>
<pdfrwt beam="2">  1       -1 0.28169130E-02 0.90798872E+02</pdfrwt>
<totfact> 0.10776684E+05</totfact>
</mgrwt>
</event>
<event>
 7    1  0.3565607E-009  0.9110157E+02  0.7818608E-02  0.1300206E+00
         -1   -1    0    0    0  501 -0.00000000000E+00  0.00000000000E+00  0.12086822621E+02  0.12086823672E+02  0.50400000000E-02 0.  1.
          1   -1    0    0  501    0  0.00000000000E+00 -0.00000000000E+00 -0.17166411634E+03  0.17166411642E+03  0.50400000000E-02 0. -1.
         23    2    1    2    0    0  0.00000000000E+00  0.00000000000E+00 -0.15957729372E+03  0.18375094009E+03  0.91101565913E+02 0.  0.
    9000005    2    3    3    0    0 -0.17785603699E+02 -0.10576400572E+02 -0.16123614102E+03  0.16299185238E+03  0.11876987116E+02 0.  0.
         22    1    3    3    0    0  0.17785603699E+02  0.10576400572E+02  0.16588473019E+01  0.20759087705E+02  0.00000000000E+00 0.  1.
         22    1    4    4    0    0  0.74739201565E+00 -0.17463187378E+01 -0.40796479845E+01  0.45001946221E+01  0.00000000000E+00 0. -1.
         22    1    4    4    0    0 -0.18532995714E+02 -0.88300818343E+01 -0.15715649304E+03  0.15849165776E+03  0.00000000000E+00 0. -1.
<mgrwt>
<rscale>  0 0.91101566E+02</rscale>
<asrwt>0</asrwt>
<pdfrwt beam="2">  1        1 0.26409862E-01 0.91101566E+02</pdfrwt>
<pdfrwt beam="1">  1       -1 0.18595114E-02 0.91101566E+02</pdfrwt>
<totfact> 0.11524234E+05</totfact>
</mgrwt>
</event>
<event>
 7    1  0.3565607E-009  0.9438439E+02  0.7818608E-02  0.1292569E+00
          1   -1    0    0  501    0  0.00000000000E+00  0.00000000000E+00  0.26763349626E+03  0.26763349630E+03  0.50400000000E-02 0. -1.
         -1   -1    0    0    0  501 -0.00000000000E+00 -0.00000000000E+00 -0.83214655976E+01  0.83214671239E+01  0.50400000000E-02 0.  1.
         23    2    1    2    0    0 -0.71054273576E-14  0.00000000000E+00  0.25931203066E+03  0.27595496343E+03  0.94384387459E+02 0.  0.
    9000005    2    3    3    0    0 -0.44650547583E+02  0.12694046203E+02  0.13645881228E+03  0.14462437493E+03  0.11848720069E+02 0.  0.
         22    1    3    3    0    0  0.44650547583E+02 -0.12694046203E+02  0.12285321838E+03  0.13133058849E+03  0.00000000000E+00 0. -1.
         22    1    4    4    0    0 -0.33140828830E+02  0.13916324643E+02  0.94728540659E+02  0.10131868062E+03  0.00000000000E+00 0. -1.
         22    1    4    4    0    0 -0.11509718753E+02 -0.12222784400E+01  0.41730271623E+02  0.43305694315E+02  0.00000000000E+00 0. -1.
<mgrwt>
<rscale>  0 0.94384387E+02</rscale>
<asrwt>0</asrwt>
<pdfrwt beam="1">  1        1 0.41174388E-01 0.94384387E+02</pdfrwt>
<pdfrwt beam="2">  1       -1 0.12802255E-02 0.94384387E+02</pdfrwt>
<totfact> 0.11425461E+05</totfact>
</mgrwt>
</event>
<event>
 7    1  0.3565607E-009  0.9391749E+02  0.7818608E-02  0.1293633E+00
          1   -1    0    0  501    0  0.00000000000E+00  0.00000000000E+00  0.75528386812E+02  0.75528386980E+02  0.50400000000E-02 0. -1.
         -1   -1    0    0    0  501 -0.00000000000E+00 -0.00000000000E+00 -0.29195962063E+02  0.29195962498E+02  0.50400000000E-02 0.  1.
         23    2    1    2    0    0  0.00000000000E+00  0.35527136788E-14  0.46332424749E+02  0.10472434948E+03  0.93917494592E+02 0.  0.
    9000005    2    3    3    0    0  0.28142383549E+02 -0.27570421470E+02 -0.35892110505E+01  0.41129604312E+02  0.11253444943E+02 0.  0.
         22    1    3    3    0    0 -0.28142383549E+02  0.27570421470E+02  0.49921635799E+02  0.63594745166E+02  0.00000000000E+00 0.  1.
         22    1    4    4    0    0  0.17999828189E+02 -0.11273121566E+02  0.14360130051E+01  0.21287066919E+02  0.00000000000E+00 0.  1.
         22    1    4    4    0    0  0.10142555360E+02 -0.16297299904E+02 -0.50252240556E+01  0.19842537393E+02  0.00000000000E+00 0.  1.
<mgrwt>
<rscale>  0 0.93917495E+02</rscale>
<asrwt>0</asrwt>
<pdfrwt beam="1">  1        1 0.11619752E-01 0.93917495E+02</pdfrwt>
<pdfrwt beam="2">  1       -1 0.44916866E-02 0.93917495E+02</pdfrwt>
<totfact> 0.92005939E+04</totfact>
</mgrwt>
</event>
<event>
 7    1  0.3565607E-009  0.9246560E+02  0.7818608E-02  0.1296988E+00
         -1   -1    0    0    0  501 -0.00000000000E+00  0.00000000000E+00  0.17250631085E+03  0.17250631092E+03  0.50400000000E-02 0.  1.
          1   -1    0    0  501    0  0.00000000000E+00 -0.00000000000E+00 -0.12390687546E+02  0.12390688571E+02  0.50400000000E-02 0. -1.
         23    2    1    2    0    0 -0.71054273576E-14  0.00000000000E+00  0.16011562330E+03  0.18489699949E+03  0.92465602230E+02 0.  0.
    9000005    2    3    3    0    0  0.37064818298E+02 -0.24486009788E+02  0.67037585997E+02  0.81761717172E+02  0.14750424661E+02 0.  0.
         22    1    3    3    0    0 -0.37064818298E+02  0.24486009788E+02  0.93078037306E+02  0.10313528232E+03  0.00000000000E+00 0.  1.
         22    1    4    4    0    0  0.37561642221E+02 -0.21495390316E+02  0.65070212946E+02  0.78147689563E+02  0.00000000000E+00 0. -1.
         22    1    4    4    0    0 -0.49682392262E+00 -0.29906194714E+01  0.19673730512E+01  0.36140276085E+01  0.00000000000E+00 0. -1.
<mgrwt>
<rscale>  0 0.92465602E+02</rscale>
<asrwt>0</asrwt>
<pdfrwt beam="2">  1        1 0.19062598E-02 0.92465602E+02</pdfrwt>
<pdfrwt beam="1">  1       -1 0.26539431E-01 0.92465602E+02</pdfrwt>
<totfact> 0.69673919E+04</totfact>
</mgrwt>
</event>
<event>
 7    1  0.3565607E-009  0.9152966E+02  0.7818608E-02  0.1299189E+00
          1   -1    0    0  501    0  0.00000000000E+00  0.00000000000E+00  0.43348391366E+03  0.43348391369E+03  0.50400000000E-02 0. -1.
         -1   -1    0    0    0  501 -0.00000000000E+00 -0.00000000000E+00 -0.48315957725E+01  0.48315984012E+01  0.50400000000E-02 0.  1.
         23    2    1    2    0    0 -0.35527136788E-14  0.00000000000E+00  0.42865231789E+03  0.43831551209E+03  0.91529659176E+02 0.  0.
    9000005    2    3    3    0    0  0.23026763670E+02 -0.10439742363E+02  0.39622983160E+03  0.39720057949E+03  0.11445559512E+02 0.  0.
         22    1    3    3    0    0 -0.23026763670E+02  0.10439742363E+02  0.32422486294E+02  0.41114932606E+02  0.00000000000E+00 0.  1.
         22    1    4    4    0    0  0.96484876955E+01 -0.14103191597E+01  0.85974347993E+02  0.86525550144E+02  0.00000000000E+00 0.  1.
         22    1    4    4    0    0  0.13378275974E+02 -0.90294232030E+01  0.31025548360E+03  0.31067502934E+03  0.00000000000E+00 0.  1.
<mgrwt>
<rscale>  0 0.91529659E+02</rscale>
<asrwt>0</asrwt>
<pdfrwt beam="1">  1        1 0.66689845E-01 0.91529659E+02</pdfrwt>
<pdfrwt beam="2">  1       -1 0.74332250E-03 0.91529659E+02</pdfrwt>
<totfact> 0.13521334E+05</totfact>
</mgrwt>
</event>
<event>
 7    1  0.3565607E-009  0.9250476E+02  0.7818608E-02  0.1296897E+00
          1   -1    0    0  501    0  0.00000000000E+00  0.00000000000E+00  0.79237387582E+01  0.79237403610E+01  0.50400000000E-02 0. -1.
         -1   -1    0    0    0  501 -0.00000000000E+00 -0.00000000000E+00 -0.26998398811E+03  0.26998398816E+03  0.50400000000E-02 0.  1.
         23    2    1    2    0    0  0.00000000000E+00  0.00000000000E+00 -0.26206024935E+03  0.27790772852E+03  0.92504763552E+02 0.  0.
    9000005    2    3    3    0    0  0.23329931386E+02 -0.22288575491E+02 -0.23054577227E+03  0.23280530550E+03  0.24271102942E+01 0.  0.
         22    1    3    3    0    0 -0.23329931386E+02  0.22288575491E+02 -0.31514477084E+02  0.45102423014E+02  0.00000000000E+00 0. -1.
         22    1    4    4    0    0  0.18408216013E+02 -0.16716693930E+02 -0.17146992229E+03  0.17326351180E+03  0.00000000000E+00 0. -1.
         22    1    4    4    0    0  0.49217153723E+01 -0.55718815610E+01 -0.59075849980E+02  0.59541793702E+02  0.00000000000E+00 0. -1.
<mgrwt>
<rscale>  0 0.92504764E+02</rscale>
<asrwt>0</asrwt>
<pdfrwt beam="1">  1        1 0.12190371E-02 0.92504764E+02</pdfrwt>
<pdfrwt beam="2">  1       -1 0.41535991E-01 0.92504764E+02</pdfrwt>
<totfact> 0.60704167E+04</totfact>
</mgrwt>
</event>
<event>
 7    1  0.3565607E-009  0.9321798E+02  0.7818608E-02  0.1295241E+00
          1   -1    0    0  501    0  0.00000000000E+00  0.00000000000E+00  0.34098931953E+02  0.34098932325E+02  0.50400000000E-02 0. -1.
         -1   -1    0    0    0  501 -0.00000000000E+00 -0.00000000000E+00 -0.63708683326E+02  0.63708683525E+02  0.50400000000E-02 0.  1.
         23    2    1    2    0    0  0.00000000000E+00  0.00000000000E+00 -0.29609751373E+02  0.97807615850E+02  0.93217982932E+02 0.  0.
    9000005    2    3    3    0    0  0.29678242226E+02 -0.29530431483E+02 -0.34773069407E+02  0.55623444669E+02  0.11487244911E+02 0.  0.
         22    1    3    3    0    0 -0.29678242226E+02  0.29530431483E+02  0.51633180333E+01  0.42184171182E+02  0.00000000000E+00 0. -1.
         22    1    4    4    0    0  0.98596619197E+01 -0.14350143621E+02 -0.84778619564E+01  0.19365270421E+02  0.00000000000E+00 0. -1.
         22    1    4    4    0    0  0.19818580306E+02 -0.15180287862E+02 -0.26295207450E+02  0.36258174248E+02  0.00000000000E+00 0. -1.
<mgrwt>
<rscale>  0 0.93217983E+02</rscale>
<asrwt>0</asrwt>
<pdfrwt beam="1">  1        1 0.52459896E-02 0.93217983E+02</pdfrwt>
<pdfrwt beam="2">  1       -1 0.98013359E-02 0.93217983E+02</pdfrwt>
<totfact> 0.83039789E+04</totfact>
</mgrwt>
</event>
<event>
 7    1  0.3565607E-009  0.8991208E+02  0.7818608E-02  0.1303065E+00
         -1   -1    0    0    0  501 -0.00000000000E+00  0.00000000000E+00  0.13907029384E+02  0.13907030297E+02  0.50400000000E-02 0.  1.
          1   -1    0    0  501    0  0.00000000000E+00 -0.00000000000E+00 -0.14532544753E+03  0.14532544762E+03  0.50400000000E-02 0. -1.
         23    2    1    2    0    0  0.00000000000E+00  0.00000000000E+00 -0.13141841815E+03  0.15923247792E+03  0.89912075912E+02 0.  0.
    9000005    2    3    3    0    0 -0.23429823757E+02 -0.12537133997E+02 -0.53865240116E+01  0.30429625814E+02  0.13813439691E+02 0.  0.
         22    1    3    3    0    0  0.23429823757E+02  0.12537133997E+02 -0.12603189414E+03  0.12880285210E+03  0.00000000000E+00 0. -1.
         22    1    4    4    0    0 -0.13522904632E+02  0.52208944786E+00 -0.18260887830E+01  0.13655626215E+02  0.00000000000E+00 0. -1.
         22    1    4    4    0    0 -0.99069191251E+01 -0.13059223445E+02 -0.35604352286E+01  0.16773999599E+02  0.00000000000E+00 0. -1.
<mgrwt>
<rscale>  0 0.89912076E+02</rscale>
<asrwt>0</asrwt>
<pdfrwt beam="2">  1        1 0.22357760E-01 0.89912076E+02</pdfrwt>
<pdfrwt beam="1">  1       -1 0.21395432E-02 0.89912076E+02</pdfrwt>
<totfact> 0.11576210E+05</totfact>
</mgrwt>
</event>
<event>
 7    1  0.3565607E-009  0.9127678E+02  0.7818608E-02  0.1299789E+00
         -1   -1    0    0    0  501 -0.00000000000E+00  0.00000000000E+00  0.41499273104E+01  0.41499303709E+01  0.50400000000E-02 0.  1.
          1   -1    0    0  501    0  0.00000000000E+00 -0.00000000000E+00 -0.50190320224E+03  0.50190320227E+03  0.50400000000E-02 0. -1.
         23    2    1    2    0    0  0.00000000000E+00  0.00000000000E+00 -0.49775327493E+03  0.50605313264E+03  0.91276778798E+02 0.  0.
    9000005    2    3    3    0    0 -0.28796902706E+02  0.32016205202E+02 -0.33202879826E+03  0.33482550295E+03  0.32704051515E+01 0.  0.
         22    1    3    3    0    0  0.28796902706E+02 -0.32016205202E+02 -0.16572447667E+03  0.17122762969E+03  0.00000000000E+00 0.  1.
         22    1    4    4    0    0 -0.14667898743E+02  0.18739872775E+02 -0.18282596292E+03  0.18436828036E+03  0.00000000000E+00 0. -1.
         22    1    4    4    0    0 -0.14129003963E+02  0.13276332427E+02 -0.14920283535E+03  0.15045722259E+03  0.00000000000E+00 0. -1.
<mgrwt>
<rscale>  0 0.91276779E+02</rscale>
<asrwt>0</asrwt>
<pdfrwt beam="2">  1        1 0.77215829E-01 0.91276779E+02</pdfrwt>
<pdfrwt beam="1">  1       -1 0.63845099E-03 0.91276779E+02</pdfrwt>
<totfact> 0.13892324E+05</totfact>
</mgrwt>
</event>
<event>
 7    1  0.3565607E-009  0.9339729E+02  0.7818608E-02  0.1294827E+00
         -1   -1    0    0    0  501 -0.00000000000E+00  0.00000000000E+00  0.54982899261E+01  0.54982922360E+01  0.50400000000E-02 0.  1.
          1   -1    0    0  501    0  0.00000000000E+00 -0.00000000000E+00 -0.39662567854E+03  0.39662567857E+03  0.50400000000E-02 0. -1.
         23    2    1    2    0    0  0.00000000000E+00  0.71054273576E-14 -0.39112738861E+03  0.40212397081E+03  0.93397289974E+02 0.  0.
    9000005    2    3    3    0    0  0.11073754741E+02  0.44949328624E+02 -0.19949173180E+03  0.20497606909E+03  0.86699282991E+01 0.  0.
         22    1    3    3    0    0 -0.11073754741E+02 -0.44949328624E+02 -0.19163565681E+03  0.19714790171E+03  0.00000000000E+00 0.  1.
         22    1    4    4    0    0  0.15844262599E+01  0.18743082504E+02 -0.67373902369E+02  0.69950384336E+02  0.00000000000E+00 0. -1.
         22    1    4    4    0    0  0.94893284807E+01  0.26206246120E+02 -0.13211782943E+03  0.13502568476E+03  0.00000000000E+00 0. -1.
<mgrwt>
<rscale>  0 0.93397290E+02</rscale>
<asrwt>0</asrwt>
<pdfrwt beam="2">  1        1 0.61019313E-01 0.93397290E+02</pdfrwt>
<pdfrwt beam="1">  1       -1 0.84589125E-03 0.93397290E+02</pdfrwt>
<totfact> 0.12635243E+05</totfact>
</mgrwt>
</event>
<event>
 7    1  0.3565607E-009  0.9183492E+02  0.7818608E-02  0.1298468E+00
         -1   -1    0    0    0  501 -0.00000000000E+00  0.00000000000E+00  0.39553931955E+01  0.39553964065E+01  0.50400000000E-02 0.  1.
          1   -1    0    0  501    0  0.00000000000E+00 -0.00000000000E+00 -0.53304743408E+03  0.53304743411E+03  0.50400000000E-02 0. -1.
         23    2    1    2    0    0  0.27755575616E-15  0.00000000000E+00 -0.52909204089E+03  0.53700283051E+03  0.91834918461E+02 0.  0.
    9000005    2    3    3    0    0  0.27819284032E+00 -0.23725931994E+02 -0.49379748651E+03  0.49447398373E+03  0.10274515022E+02 0.  0.
         22    1    3    3    0    0 -0.27819284032E+00  0.23725931994E+02 -0.35294554377E+02  0.42528846786E+02  0.00000000000E+00 0.  1.
         22    1    4    4    0    0  0.51959212650E+01 -0.12628491199E+02 -0.24417615650E+03  0.24455770646E+03  0.00000000000E+00 0.  1.
         22    1    4    4    0    0 -0.49177284247E+01 -0.11097440795E+02 -0.24962133002E+03  0.24991627727E+03  0.00000000000E+00 0.  1.
<mgrwt>
<rscale>  0 0.91834918E+02</rscale>
<asrwt>0</asrwt>
<pdfrwt beam="2">  1        1 0.82007241E-01 0.91834918E+02</pdfrwt>
<pdfrwt beam="1">  1       -1 0.60852270E-03 0.91834918E+02</pdfrwt>
<totfact> 0.13759398E+05</totfact>
</mgrwt>
</event>
<event>
 7    1  0.3565607E-009  0.8933435E+02  0.7818608E-02  0.1304472E+00
          1   -1    0    0  501    0  0.00000000000E+00  0.00000000000E+00  0.85397219469E+03  0.85397219471E+03  0.50400000000E-02 0. -1.
         -1   -1    0    0    0  501 -0.00000000000E+00 -0.00000000000E+00 -0.23363222230E+01  0.23363276592E+01  0.50400000000E-02 0.  1.
         23    2    1    2    0    0  0.00000000000E+00  0.00000000000E+00  0.85163587247E+03  0.85630852237E+03  0.89334350620E+02 0.  0.
    9000005    2    3    3    0    0  0.25338084108E+02  0.30450627576E+02  0.61864067622E+03  0.61996973862E+03  0.87710494416E+01 0.  0.
         22    1    3    3    0    0 -0.25338084108E+02 -0.30450627576E+02  0.23299519625E+03  0.23633878374E+03  0.00000000000E+00 0.  1.
         22    1    4    4    0    0  0.40985838178E+01  0.36867943870E+01  0.49882710682E+02  0.50186409187E+02  0.00000000000E+00 0.  1.
         22    1    4    4    0    0  0.21239500291E+02  0.26763833189E+02  0.56875796554E+03  0.56978332944E+03  0.00000000000E+00 0.  1.
<mgrwt>
<rscale>  0 0.89334351E+02</rscale>
<asrwt>0</asrwt>
<pdfrwt beam="1">  1        1 0.13138029E+00 0.89334351E+02</pdfrwt>
<pdfrwt beam="2">  1       -1 0.35943474E-03 0.89334351E+02</pdfrwt>
<totfact> 0.14806457E+05</totfact>
</mgrwt>
</event>
<event>
 7    1  0.3565607E-009  0.9259000E+02  0.7818608E-02  0.1296698E+00
         -1   -1    0    0    0  501 -0.00000000000E+00  0.00000000000E+00  0.61568013341E+01  0.61568033970E+01  0.50400000000E-02 0.  1.
          1   -1    0    0  501    0  0.00000000000E+00 -0.00000000000E+00 -0.34810714017E+03  0.34810714021E+03  0.50400000000E-02 0. -1.
         23    2    1    2    0    0  0.00000000000E+00  0.00000000000E+00 -0.34195033884E+03  0.35426394361E+03  0.92589996800E+02 0.  0.
    9000005    2    3    3    0    0  0.10945361858E+01 -0.41073420699E+02 -0.25134134292E+03  0.25477417510E+03  0.70132543081E+01 0.  0.
         22    1    3    3    0    0 -0.10945361858E+01  0.41073420699E+02 -0.90608995913E+02  0.99489768508E+02  0.00000000000E+00 0.  1.
         22    1    4    4    0    0  0.34388695064E+01 -0.12571408015E+02 -0.84627330318E+02  0.85625061516E+02  0.00000000000E+00 0.  1.
         22    1    4    4    0    0 -0.23443333206E+01 -0.28502012684E+02 -0.16671401261E+03  0.16914911358E+03  0.00000000000E+00 0.  1.
<mgrwt>
<rscale>  0 0.92589997E+02</rscale>
<asrwt>0</asrwt>
<pdfrwt beam="2">  1        1 0.53554929E-01 0.92589997E+02</pdfrwt>
<pdfrwt beam="1">  1       -1 0.94720064E-03 0.92589997E+02</pdfrwt>
<totfact> 0.12641963E+05</totfact>
</mgrwt>
</event>
<event>
 7    1  0.3565607E-009  0.9154676E+02  0.7818608E-02  0.1299149E+00
          1   -1    0    0  501    0  0.00000000000E+00  0.00000000000E+00  0.25883924165E+03  0.25883924170E+03  0.50400000000E-02 0. -1.
         -1   -1    0    0    0  501 -0.00000000000E+00 -0.00000000000E+00 -0.80946081151E+01  0.80946096842E+01  0.50400000000E-02 0.  1.
         23    2    1    2    0    0 -0.66613381478E-15  0.00000000000E+00  0.25074463354E+03  0.26693385138E+03  0.91546762738E+02 0.  0.
    9000005    2    3    3    0    0  0.10415866938E+01  0.38136170736E+02  0.19748418982E+03  0.20141952252E+03  0.10694222899E+02 0.  0.
         22    1    3    3    0    0 -0.10415866938E+01 -0.38136170736E+02  0.53260443716E+02  0.65514328861E+02  0.00000000000E+00 0.  1.
         22    1    4    4    0    0 -0.35215965097E+01  0.16605761433E+02  0.10424272386E+03  0.10561580579E+03  0.00000000000E+00 0.  1.
         22    1    4    4    0    0  0.45631832035E+01  0.21530409304E+02  0.93241465963E+02  0.95803716738E+02  0.00000000000E+00 0.  1.
<mgrwt>
<rscale>  0 0.91546763E+02</rscale>
<asrwt>0</asrwt>
<pdfrwt beam="1">  1        1 0.39821416E-01 0.91546763E+02</pdfrwt>
<pdfrwt beam="2">  1       -1 0.12453246E-02 0.91546763E+02</pdfrwt>
<totfact> 0.12317049E+05</totfact>
</mgrwt>
</event>
<event>
 7    1  0.3565607E-009  0.9394100E+02  0.7818608E-02  0.1293579E+00
          1   -1    0    0  501    0  0.00000000000E+00  0.00000000000E+00  0.60796511963E+03  0.60796511965E+03  0.50400000000E-02 0. -1.
         -1   -1    0    0    0  501 -0.00000000000E+00 -0.00000000000E+00 -0.36288707496E+01  0.36288742495E+01  0.50400000000E-02 0.  1.
         23    2    1    2    0    0 -0.71054273576E-14 -0.35527136788E-14  0.60433624888E+03  0.61159399390E+03  0.93941000975E+02 0.  0.
    9000005    2    3    3    0    0  0.39485388990E+02  0.20590508719E+02  0.38038252129E+03  0.38325578620E+03  0.14528253915E+02 0.  0.
         22    1    3    3    0    0 -0.39485388990E+02 -0.20590508719E+02  0.22395372759E+03  0.22833820770E+03  0.00000000000E+00 0.  1.
         22    1    4    4    0    0 -0.79466819851E+00  0.70021658425E+00  0.25387255259E+01  0.27508049924E+01  0.00000000000E+00 0. -1.
         22    1    4    4    0    0  0.40280057188E+02  0.19890292135E+02  0.37784379576E+03  0.38050498121E+03  0.00000000000E+00 0. -1.
<mgrwt>
<rscale>  0 0.93941001E+02</rscale>
<asrwt>0</asrwt>
<pdfrwt beam="1">  1        1 0.93533005E-01 0.93941001E+02</pdfrwt>
<pdfrwt beam="2">  1       -1 0.55828862E-03 0.93941001E+02</pdfrwt>
<totfact> 0.13090794E+05</totfact>
</mgrwt>
</event>
<event>
 7    1  0.3565607E-009  0.9231872E+02  0.7818608E-02  0.1297332E+00
         -1   -1    0    0    0  501 -0.00000000000E+00  0.00000000000E+00  0.12419260745E+03  0.12419260755E+03  0.50400000000E-02 0.  1.
          1   -1    0    0  501    0  0.00000000000E+00 -0.00000000000E+00 -0.17156305875E+02  0.17156306615E+02  0.50400000000E-02 0. -1.
         23    2    1    2    0    0 -0.35527136788E-14  0.00000000000E+00  0.10703630158E+03  0.14134891417E+03  0.92318717937E+02 0.  0.
    9000005    2    3    3    0    0 -0.18701320278E+02  0.26271955477E+02  0.10389399310E+03  0.10894784741E+03  0.59763390086E+01 0.  0.
         22    1    3    3    0    0  0.18701320278E+02 -0.26271955477E+02  0.31423084780E+01  0.32401066762E+02  0.00000000000E+00 0. -1.
         22    1    4    4    0    0 -0.91322289470E+00  0.43525479894E+01  0.17639640418E+02  0.18191634454E+02  0.00000000000E+00 0.  1.
         22    1    4    4    0    0 -0.17788097383E+02  0.21919407488E+02  0.86254352681E+02  0.90756212953E+02  0.00000000000E+00 0.  1.
<mgrwt>
<rscale>  0 0.92318718E+02</rscale>
<asrwt>0</asrwt>
<pdfrwt beam="2">  1        1 0.26394318E-02 0.92318718E+02</pdfrwt>
<pdfrwt beam="1">  1       -1 0.19106555E-01 0.92318718E+02</pdfrwt>
<totfact> 0.75501760E+04</totfact>
</mgrwt>
</event>
<event>
 7    1  0.3565607E-009  0.9130999E+02  0.7818608E-02  0.1299710E+00
         -1   -1    0    0    0  501 -0.00000000000E+00  0.00000000000E+00  0.40055826632E+02  0.40055826949E+02  0.50400000000E-02 0.  1.
          1   -1    0    0  501    0  0.00000000000E+00 -0.00000000000E+00 -0.52036841491E+02  0.52036841735E+02  0.50400000000E-02 0. -1.
         23    2    1    2    0    0 -0.35527136788E-14  0.00000000000E+00 -0.11981014859E+02  0.92092668684E+02  0.91309993474E+02 0.  0.
    9000005    2    3    3    0    0  0.27392972284E+02  0.35449508359E+02 -0.83761521545E+01  0.47147840187E+02  0.12071302164E+02 0.  0.
         22    1    3    3    0    0 -0.27392972284E+02 -0.35449508359E+02 -0.36048627047E+01  0.44944828497E+02  0.00000000000E+00 0.  1.
         22    1    4    4    0    0  0.26532542334E+02  0.34900209323E+02 -0.10241912455E+02  0.45021074890E+02  0.00000000000E+00 0.  1.
         22    1    4    4    0    0  0.86042995037E+00  0.54929903575E+00  0.18657603006E+01  0.21267652972E+01  0.00000000000E+00 0.  1.
<mgrwt>
<rscale>  0 0.91309993E+02</rscale>
<asrwt>0</asrwt>
<pdfrwt beam="2">  1        1 0.80056680E-02 0.91309993E+02</pdfrwt>
<pdfrwt beam="1">  1       -1 0.61624349E-02 0.91309993E+02</pdfrwt>
<totfact> 0.93943857E+04</totfact>
</mgrwt>
</event>
<event>
 7    1  0.3565607E-009  0.9288800E+02  0.7818608E-02  0.1296005E+00
         -1   -1    0    0    0  501 -0.00000000000E+00  0.00000000000E+00  0.53705860868E+01  0.53705884517E+01  0.50400000000E-02 0.  1.
          1   -1    0    0  501    0  0.00000000000E+00 -0.00000000000E+00 -0.40164045452E+03  0.40164045455E+03  0.50400000000E-02 0. -1.
         23    2    1    2    0    0  0.71054273576E-14 -0.44408920985E-15 -0.39626986843E+03  0.40701104300E+03  0.92887999755E+02 0.  0.
    9000005    2    3    3    0    0  0.43841037483E+02 -0.21694476342E+01 -0.25602462396E+03  0.26005706494E+03  0.12422796865E+02 0.  0.
         22    1    3    3    0    0 -0.43841037483E+02  0.21694476342E+01 -0.14024524447E+03  0.14695397806E+03  0.00000000000E+00 0.  1.
         22    1    4    4    0    0  0.60187846289E+01 -0.48091100074E+01 -0.43632344440E+02  0.44307276928E+02  0.00000000000E+00 0.  1.
         22    1    4    4    0    0  0.37822252854E+02  0.26396623731E+01 -0.21239227952E+03  0.21574978801E+03  0.00000000000E+00 0.  1.
<mgrwt>
<rscale>  0 0.92888000E+02</rscale>
<asrwt>0</asrwt>
<pdfrwt beam="2">  1        1 0.61790816E-01 0.92888000E+02</pdfrwt>
<pdfrwt beam="1">  1       -1 0.82624451E-03 0.92888000E+02</pdfrwt>
<totfact> 0.12847067E+05</totfact>
</mgrwt>
</event>
<event>
 7    1  0.3565607E-009  0.8970730E+02  0.7818608E-02  0.1303562E+00
          1   -1    0    0  501    0  0.00000000000E+00  0.00000000000E+00  0.62367279721E+02  0.62367279924E+02  0.50400000000E-02 0. -1.
         -1   -1    0    0    0  501 -0.00000000000E+00 -0.00000000000E+00 -0.32258102004E+02  0.32258102397E+02  0.50400000000E-02 0.  1.
         23    2    1    2    0    0  0.71054273576E-14  0.00000000000E+00  0.30109177717E+02  0.94625382322E+02  0.89707304032E+02 0.  0.
    9000005    2    3    3    0    0  0.40254947321E+02  0.10722130710E+02  0.35322174602E+00  0.43431224583E+02  0.12276873886E+02 0.  0.
         22    1    3    3    0    0 -0.40254947321E+02 -0.10722130710E+02  0.29755955971E+02  0.51194157739E+02  0.00000000000E+00 0. -1.
         22    1    4    4    0    0  0.37877386013E+01  0.53496648839E+01  0.45005672825E+00  0.65702685744E+01  0.00000000000E+00 0. -1.
         22    1    4    4    0    0  0.36467208720E+02  0.53724658260E+01 -0.96834982222E-01  0.36860956009E+02  0.00000000000E+00 0. -1.
<mgrwt>
<rscale>  0 0.89707304E+02</rscale>
<asrwt>0</asrwt>
<pdfrwt beam="1">  1        1 0.95949660E-02 0.89707304E+02</pdfrwt>
<pdfrwt beam="2">  1       -1 0.49627851E-02 0.89707304E+02</pdfrwt>
<totfact> 0.10139151E+05</totfact>
</mgrwt>
</event>
<event>
 7    1  0.3565607E-009  0.9056522E+02  0.7818608E-02  0.1301489E+00
          1   -1    0    0  501    0  0.00000000000E+00  0.00000000000E+00  0.35911056788E+03  0.35911056791E+03  0.50400000000E-02 0. -1.
         -1   -1    0    0    0  501 -0.00000000000E+00 -0.00000000000E+00 -0.57099806762E+01  0.57099829005E+01  0.50400000000E-02 0.  1.
         23    2    1    2    0    0  0.44408920985E-15  0.00000000000E+00  0.35340058720E+03  0.36482055081E+03  0.90565221037E+02 0.  0.
    9000005    2    3    3    0    0 -0.14335179069E+01  0.19109316726E+02  0.34136608025E+03  0.34219202198E+03  0.14048423615E+02 0.  0.
         22    1    3    3    0    0  0.14335179069E+01 -0.19109316726E+02  0.12034506951E+02  0.22628528827E+02  0.00000000000E+00 0.  1.
         22    1    4    4    0    0 -0.68744241314E+01  0.88851814244E+01  0.12051547608E+03  0.12103794500E+03  0.00000000000E+00 0. -1.
         22    1    4    4    0    0  0.54409062246E+01  0.10224135302E+02  0.22085060417E+03  0.22115407698E+03  0.00000000000E+00 0. -1.
<mgrwt>
<rscale>  0 0.90565221E+02</rscale>
<asrwt>0</asrwt>
<pdfrwt beam="1">  1        1 0.55247796E-01 0.90565221E+02</pdfrwt>
<pdfrwt beam="2">  1       -1 0.87845848E-03 0.90565221E+02</pdfrwt>
<totfact> 0.13482367E+05</totfact>
</mgrwt>
</event>
<event>
 7    1  0.3565607E-009  0.9029227E+02  0.7818608E-02  0.1302145E+00
          1   -1    0    0  501    0  0.00000000000E+00  0.00000000000E+00  0.13688019686E+03  0.13688019695E+03  0.50400000000E-02 0. -1.
         -1   -1    0    0    0  501 -0.00000000000E+00 -0.00000000000E+00 -0.14890198372E+02  0.14890199225E+02  0.50400000000E-02 0.  1.
         23    2    1    2    0    0  0.00000000000E+00  0.00000000000E+00  0.12198999849E+03  0.15177039618E+03  0.90292266695E+02 0.  0.
    9000005    2    3    3    0    0 -0.30195845040E+02 -0.13705736964E+02  0.13478035306E+02  0.38304619677E+02  0.13636354701E+02 0.  0.
         22    1    3    3    0    0  0.30195845040E+02  0.13705736964E+02  0.10851196318E+03  0.11346577650E+03  0.00000000000E+00 0. -1.
         22    1    4    4    0    0 -0.23440112426E+02 -0.46801495416E+01  0.12538067667E+02  0.26991587784E+02  0.00000000000E+00 0.  1.
         22    1    4    4    0    0 -0.67557326141E+01 -0.90255874220E+01  0.93996763954E+00  0.11313031894E+02  0.00000000000E+00 0.  1.
<mgrwt>
<rscale>  0 0.90292267E+02</rscale>
<asrwt>0</asrwt>
<pdfrwt beam="1">  1        1 0.21058491E-01 0.90292267E+02</pdfrwt>
<pdfrwt beam="2">  1       -1 0.22907999E-02 0.90292267E+02</pdfrwt>
<totfact> 0.11322199E+05</totfact>
</mgrwt>
</event>
<event>
 7    1  0.3565607E-009  0.9319474E+02  0.7818608E-02  0.1295295E+00
          1   -1    0    0  501    0  0.00000000000E+00  0.00000000000E+00  0.35000368451E+02  0.35000368814E+02  0.50400000000E-02 0. -1.
         -1   -1    0    0    0  501 -0.00000000000E+00 -0.00000000000E+00 -0.62036910812E+02  0.62036911017E+02  0.50400000000E-02 0.  1.
         23    2    1    2    0    0  0.00000000000E+00  0.00000000000E+00 -0.27036542361E+02  0.97037279831E+02  0.93194737267E+02 0.  0.
    9000005    2    3    3    0    0 -0.14496944473E+02 -0.43160180774E+02 -0.17981568532E+02  0.50615785300E+02  0.12870831800E+02 0.  0.
         22    1    3    3    0    0  0.14496944473E+02  0.43160180774E+02 -0.90549738285E+01  0.46421494531E+02  0.00000000000E+00 0.  1.
         22    1    4    4    0    0 -0.92647378235E+01 -0.17636144274E+02 -0.19333395350E+01  0.20015163091E+02  0.00000000000E+00 0.  1.
         22    1    4    4    0    0 -0.52322066492E+01 -0.25524036499E+02 -0.16048228997E+02  0.30600622209E+02  0.00000000000E+00 0.  1.
<mgrwt>
<rscale>  0 0.93194737E+02</rscale>
<asrwt>0</asrwt>
<pdfrwt beam="1">  1        1 0.53846721E-02 0.93194737E+02</pdfrwt>
<pdfrwt beam="2">  1       -1 0.95441401E-02 0.93194737E+02</pdfrwt>
<totfact> 0.83445431E+04</totfact>
</mgrwt>
</event>
<event>
 7    1  0.3565607E-009  0.9131689E+02  0.7818608E-02  0.1299694E+00
         -1   -1    0    0    0  501 -0.00000000000E+00  0.00000000000E+00  0.28773678791E+03  0.28773678796E+03  0.50400000000E-02 0.  1.
          1   -1    0    0  501    0  0.00000000000E+00 -0.00000000000E+00 -0.72451399016E+01  0.72451416546E+01  0.50400000000E-02 0. -1.
         23    2    1    2    0    0  0.00000000000E+00  0.00000000000E+00  0.28049164801E+03  0.29498192961E+03  0.91316888872E+02 0.  0.
    9000005    2    3    3    0    0  0.23573397657E+02 -0.36707179554E+02  0.10646275036E+03  0.11556849833E+03  0.10892129420E+02 0.  0.
         22    1    3    3    0    0 -0.23573397657E+02  0.36707179554E+02  0.17402889765E+03  0.17941343128E+03  0.00000000000E+00 0.  1.
         22    1    4    4    0    0  0.49593690404E+01 -0.16335882984E+02  0.47303987804E+02  0.50290393479E+02  0.00000000000E+00 0.  1.
         22    1    4    4    0    0  0.18614028617E+02 -0.20371296570E+02  0.59158762561E+02  0.65278104852E+02  0.00000000000E+00 0.  1.
<mgrwt>
<rscale>  0 0.91316889E+02</rscale>
<asrwt>0</asrwt>
<pdfrwt beam="2">  1        1 0.11146372E-02 0.91316889E+02</pdfrwt>
<pdfrwt beam="1">  1       -1 0.44267192E-01 0.91316889E+02</pdfrwt>
<totfact> 0.61326243E+04</totfact>
</mgrwt>
</event>
<event>
 7    1  0.3565607E-009  0.9135880E+02  0.7818608E-02  0.1299594E+00
          1   -1    0    0  501    0  0.00000000000E+00  0.00000000000E+00  0.15510026429E+02  0.15510027248E+02  0.50400000000E-02 0. -1.
         -1   -1    0    0    0  501 -0.00000000000E+00 -0.00000000000E+00 -0.13453280962E+03  0.13453280971E+03  0.50400000000E-02 0.  1.
         23    2    1    2    0    0  0.00000000000E+00  0.00000000000E+00 -0.11902278319E+03  0.15004283696E+03  0.91358798182E+02 0.  0.
    9000005    2    3    3    0    0 -0.19173013175E+02  0.33715304737E+02 -0.96523034539E+02  0.10520351385E+03  0.15708498403E+02 0.  0.
         22    1    3    3    0    0  0.19173013175E+02 -0.33715304737E+02 -0.22499748650E+02  0.44839323111E+02  0.00000000000E+00 0. -1.
         22    1    4    4    0    0 -0.21322881785E+02  0.27945625100E+02 -0.75213043428E+02  0.83021835391E+02  0.00000000000E+00 0. -1.
         22    1    4    4    0    0  0.21498686097E+01  0.57696796366E+01 -0.21309991111E+02  0.22181678460E+02  0.00000000000E+00 0. -1.
<mgrwt>
<rscale>  0 0.91358798E+02</rscale>
<asrwt>0</asrwt>
<pdfrwt beam="1">  1        1 0.23861581E-02 0.91358798E+02</pdfrwt>
<pdfrwt beam="2">  1       -1 0.20697355E-01 0.91358798E+02</pdfrwt>
<totfact> 0.76258207E+04</totfact>
</mgrwt>
</event>
<event>
 7    1  0.3565607E-009  0.8383541E+02  0.7818608E-02  0.1318506E+00
         -1   -1    0    0    0  501 -0.00000000000E+00  0.00000000000E+00  0.77016284483E+02  0.77016284648E+02  0.50400000000E-02 0.  1.
          1   -1    0    0  501    0  0.00000000000E+00 -0.00000000000E+00 -0.22814577177E+02  0.22814577734E+02  0.50400000000E-02 0. -1.
         23    2    1    2    0    0  0.00000000000E+00  0.00000000000E+00  0.54201707307E+02  0.99830862382E+02  0.83835410233E+02 0.  0.
    9000005    2    3    3    0    0  0.21806788752E+02  0.25854520304E+02 -0.15296100012E+01  0.34639053198E+02  0.73165595630E+01 0.  0.
         22    1    3    3    0    0 -0.21806788752E+02 -0.25854520304E+02  0.55731317308E+02  0.65191809184E+02  0.00000000000E+00 0.  1.
         22    1    4    4    0    0  0.17046054319E+02  0.18440757076E+02 -0.41365929951E+01  0.25450754233E+02  0.00000000000E+00 0.  1.
         22    1    4    4    0    0  0.47607344324E+01  0.74137632284E+01  0.26069829939E+01  0.91882989651E+01  0.00000000000E+00 0.  1.
<mgrwt>
<rscale>  0 0.83835410E+02</rscale>
<asrwt>0</asrwt>
<pdfrwt beam="2">  1        1 0.35099350E-02 0.83835410E+02</pdfrwt>
<pdfrwt beam="1">  1       -1 0.11848659E-01 0.83835410E+02</pdfrwt>
<totfact> 0.10555043E+05</totfact>
</mgrwt>
</event>
<event>
 7    1  0.3637699E-009  0.1008085E+03  0.7818608E-02  0.1278605E+00
          1   -1    0    0  501    0  0.00000000000E+00  0.00000000000E+00  0.33599882400E+02  0.33599882778E+02  0.50400000000E-02 0. -1.
         -1   -1    0    0    0  501 -0.00000000000E+00 -0.00000000000E+00 -0.75613080110E+02  0.75613080278E+02  0.50400000000E-02 0.  1.
         23    2    1    2    0    0  0.00000000000E+00 -0.88817841970E-15 -0.42013197710E+02  0.10921296306E+03  0.10080854387E+03 0.  0.
    9000005    2    3    3    0    0 -0.18212801557E+02  0.40983605255E+01 -0.71160939122E+02  0.74599475381E+02  0.12357174868E+02 0.  0.
         22    1    3    3    0    0  0.18212801557E+02 -0.40983605255E+01  0.29147741412E+02  0.34613487675E+02  0.00000000000E+00 0. -1.
         22    1    4    4    0    0 -0.98320955988E+01  0.98018493146E+00 -0.16659065181E+02  0.19368926637E+02  0.00000000000E+00 0. -1.
         22    1    4    4    0    0 -0.83807059584E+01  0.31181755940E+01 -0.54501873942E+02  0.55230548744E+02  0.00000000000E+00 0. -1.
<mgrwt>
<rscale>  0 0.10080854E+03</rscale>
<asrwt>0</asrwt>
<pdfrwt beam="1">  1        1 0.51692128E-02 0.10080854E+03</pdfrwt>
<pdfrwt beam="2">  1       -1 0.11632782E-01 0.10080854E+03</pdfrwt>
<totfact> 0.66087691E+04</totfact>
</mgrwt>
</event>
<event>
 7    1  0.3565607E-009  0.1126655E+03  0.7818608E-02  0.1255712E+00
         -1   -1    0    0    0  501 -0.00000000000E+00  0.00000000000E+00  0.10042788270E+03  0.10042788282E+03  0.50400000000E-02 0.  1.
          1   -1    0    0  501    0  0.00000000000E+00 -0.00000000000E+00 -0.31598581870E+02  0.31598582272E+02  0.50400000000E-02 0. -1.
         23    2    1    2    0    0  0.00000000000E+00 -0.22204460493E-15  0.68829300828E+02  0.13202646510E+03  0.11266549975E+03 0.  0.
    9000005    2    3    3    0    0  0.24682412878E+02 -0.14826489365E+01 -0.24481979238E+02  0.35494528719E+02  0.70053199921E+01 0.  0.
         22    1    3    3    0    0 -0.24682412878E+02  0.14826489365E+01  0.93311280066E+02  0.96531936378E+02  0.00000000000E+00 0.  1.
         22    1    4    4    0    0  0.11800500318E+02  0.15890031099E+01 -0.15265303031E+02  0.19359912585E+02  0.00000000000E+00 0.  1.
         22    1    4    4    0    0  0.12881912560E+02 -0.30716520464E+01 -0.92166762068E+01  0.16134616134E+02  0.00000000000E+00 0.  1.
<mgrwt>
<rscale>  0 0.11266550E+03</rscale>
<asrwt>0</asrwt>
<pdfrwt beam="2">  1        1 0.48613203E-02 0.11266550E+03</pdfrwt>
<pdfrwt beam="1">  1       -1 0.15450444E-01 0.11266550E+03</pdfrwt>
<totfact> 0.47067120E+04</totfact>
</mgrwt>
</event>
<event>
 7    1  0.3565607E-009  0.9144092E+02  0.7818608E-02  0.1299399E+00
         -1   -1    0    0    0  501 -0.00000000000E+00  0.00000000000E+00  0.13597461700E+02  0.13597462634E+02  0.50400000000E-02 0.  1.
          1   -1    0    0  501    0  0.00000000000E+00 -0.00000000000E+00 -0.15373166231E+03  0.15373166240E+03  0.50400000000E-02 0. -1.
         23    2    1    2    0    0  0.00000000000E+00  0.00000000000E+00 -0.14013420061E+03  0.16732912503E+03  0.91440920279E+02 0.  0.
    9000005    2    3    3    0    0 -0.23759151023E+02  0.28169257178E+02 -0.11870623018E+03  0.12470093923E+03  0.10057378160E+02 0.  0.
         22    1    3    3    0    0  0.23759151023E+02 -0.28169257178E+02 -0.21427970438E+02  0.42628185798E+02  0.00000000000E+00 0.  1.
         22    1    4    4    0    0 -0.15156322198E+02  0.22761617417E+02 -0.75023049249E+02  0.79851507491E+02  0.00000000000E+00 0. -1.
         22    1    4    4    0    0 -0.86028288259E+01  0.54076397617E+01 -0.43683180926E+02  0.44849431740E+02  0.00000000000E+00 0. -1.
<mgrwt>
<rscale>  0 0.91440920E+02</rscale>
<asrwt>0</asrwt>
<pdfrwt beam="2">  1        1 0.23651024E-01 0.91440920E+02</pdfrwt>
<pdfrwt beam="1">  1       -1 0.20919174E-02 0.91440920E+02</pdfrwt>
<totfact> 0.11176587E+05</totfact>
</mgrwt>
</event>
<event>
 7    1  0.3565607E-009  0.8989451E+02  0.7818608E-02  0.1303107E+00
          1   -1    0    0  501    0  0.00000000000E+00  0.00000000000E+00  0.37624256307E+03  0.37624256311E+03  0.50400000000E-02 0.  1.
         -1   -1    0    0    0  501 -0.00000000000E+00 -0.00000000000E+00 -0.53695554173E+01  0.53695577826E+01  0.50400000000E-02 0. -1.
         23    2    1    2    0    0 -0.71054273576E-14 -0.17763568394E-14  0.37087300766E+03  0.38161212089E+03  0.89894510411E+02 0.  0.
    9000005    2    3    3    0    0  0.40026622117E+02  0.10515367271E+02  0.25742298786E+03  0.26084950077E+03  0.79475747891E+01 0.  0.
         22    1    3    3    0    0 -0.40026622117E+02 -0.10515367271E+02  0.11345001979E+03  0.12076262012E+03  0.00000000000E+00 0. -1.
         22    1    4    4    0    0  0.45354568546E+01  0.36523560668E+01  0.44567037828E+02  0.44945866712E+02  0.00000000000E+00 0. -1.
         22    1    4    4    0    0  0.35491165263E+02  0.68630112041E+01  0.21285595004E+03  0.21590363406E+03  0.00000000000E+00 0. -1.
<mgrwt>
<rscale>  0 0.89894510E+02</rscale>
<asrwt>0</asrwt>
<pdfrwt beam="1">  1        1 0.57883453E-01 0.89894510E+02</pdfrwt>
<pdfrwt beam="2">  1       -1 0.82608590E-03 0.89894510E+02</pdfrwt>
<totfact> 0.13862470E+05</totfact>
</mgrwt>
</event>
<event>
 7    1  0.3565607E-009  0.9245109E+02  0.7818608E-02  0.1297022E+00
         -1   -1    0    0    0  501 -0.00000000000E+00  0.00000000000E+00  0.10298414927E+02  0.10298416161E+02  0.50400000000E-02 0.  1.
          1   -1    0    0  501    0  0.00000000000E+00 -0.00000000000E+00 -0.20748833795E+03  0.20748833801E+03  0.50400000000E-02 0. -1.
         23    2    1    2    0    0  0.35527136788E-14  0.00000000000E+00 -0.19718992302E+03  0.21778675417E+03  0.92451092751E+02 0.  0.
    9000005    2    3    3    0    0 -0.18846763217E+02  0.37530486954E+02 -0.57649400201E+02  0.72063401739E+02  0.10292841782E+02 0.  0.
         22    1    3    3    0    0  0.18846763217E+02 -0.37530486954E+02 -0.13954052282E+03  0.14572335243E+03  0.00000000000E+00 0. -1.
         22    1    4    4    0    0 -0.55093789643E+01  0.56385249821E+01 -0.59719284804E+01  0.98899014313E+01  0.00000000000E+00 0.  1.
         22    1    4    4    0    0 -0.13337384253E+02  0.31891961972E+02 -0.51677471720E+02  0.62173500308E+02  0.00000000000E+00 0.  1.
<mgrwt>
<rscale>  0 0.92451093E+02</rscale>
<asrwt>0</asrwt>
<pdfrwt beam="2">  1        1 0.31921280E-01 0.92451093E+02</pdfrwt>
<pdfrwt beam="1">  1       -1 0.15843718E-02 0.92451093E+02</pdfrwt>
<totfact> 0.11489369E+05</totfact>
</mgrwt>
</event>
<event>
 7    1  0.3565607E-009  0.8901048E+02  0.7818608E-02  0.1305266E+00
          1   -1    0    0  501    0  0.00000000000E+00  0.00000000000E+00  0.64682860216E+02  0.64682860412E+02  0.50400000000E-02 0. -1.
         -1   -1    0    0    0  501 -0.00000000000E+00 -0.00000000000E+00 -0.30621969447E+02  0.30621969862E+02  0.50400000000E-02 0.  1.
         23    2    1    2    0    0  0.00000000000E+00  0.00000000000E+00  0.34060890769E+02  0.95304830274E+02  0.89010484740E+02 0.  0.
    9000005    2    3    3    0    0  0.86639473345E+00 -0.11431334425E+02  0.62936979650E+02  0.64236284192E+02  0.58147014422E+01 0.  0.
         22    1    3    3    0    0 -0.86639473345E+00  0.11431334425E+02 -0.28876088881E+02  0.31068546082E+02  0.00000000000E+00 0.  1.
         22    1    4    4    0    0  0.31520191343E+01 -0.66867995631E+01  0.42099026871E+02  0.42743146544E+02  0.00000000000E+00 0. -1.
         22    1    4    4    0    0 -0.22856244008E+01 -0.47445348623E+01  0.20837952779E+02  0.21493137648E+02  0.00000000000E+00 0. -1.
<mgrwt>
<rscale>  0 0.89010485E+02</rscale>
<asrwt>0</asrwt>
<pdfrwt beam="1">  1        1 0.99512093E-02 0.89010485E+02</pdfrwt>
<pdfrwt beam="2">  1       -1 0.47110723E-02 0.89010485E+02</pdfrwt>
<totfact> 0.10416381E+05</totfact>
</mgrwt>
</event>
<event>
 7    1  0.3565607E-009  0.9001218E+02  0.7818608E-02  0.1302822E+00
          1   -1    0    0  501    0  0.00000000000E+00  0.00000000000E+00  0.18281164881E+03  0.18281164888E+03  0.50400000000E-02 0. -1.
         -1   -1    0    0    0  501 -0.00000000000E+00 -0.00000000000E+00 -0.11079972346E+02  0.11079973492E+02  0.50400000000E-02 0.  1.
         23    2    1    2    0    0  0.00000000000E+00  0.00000000000E+00  0.17173167646E+03  0.19389162237E+03  0.90012179869E+02 0.  0.
    9000005    2    3    3    0    0 -0.34696223522E+02  0.25235529467E+02  0.58272309014E+02  0.72591630878E+02  0.57639397626E+01 0.  0.
         22    1    3    3    0    0  0.34696223522E+02 -0.25235529467E+02  0.11345936745E+03  0.12129999149E+03  0.00000000000E+00 0. -1.
         22    1    4    4    0    0 -0.77627222325E+01  0.85550671701E+01  0.17238242274E+02  0.20751048828E+02  0.00000000000E+00 0. -1.
         22    1    4    4    0    0 -0.26933501289E+02  0.16680462297E+02  0.41034066739E+02  0.51840582050E+02  0.00000000000E+00 0. -1.
<mgrwt>
<rscale>  0 0.90012180E+02</rscale>
<asrwt>0</asrwt>
<pdfrwt beam="1">  1        1 0.28124865E-01 0.90012180E+02</pdfrwt>
<pdfrwt beam="2">  1       -1 0.17046115E-02 0.90012180E+02</pdfrwt>
<totfact> 0.12045468E+05</totfact>
</mgrwt>
</event>
<event>
 7    1  0.3565607E-009  0.9132514E+02  0.7818608E-02  0.1299674E+00
          1   -1    0    0  501    0  0.00000000000E+00  0.00000000000E+00  0.29583044069E+03  0.29583044074E+03  0.50400000000E-02 0. -1.
         -1   -1    0    0    0  501 -0.00000000000E+00 -0.00000000000E+00 -0.70481929731E+01  0.70481947751E+01  0.50400000000E-02 0.  1.
         23    2    1    2    0    0 -0.71054273576E-14  0.00000000000E+00  0.28878224772E+03  0.30287863551E+03  0.91325140300E+02 0.  0.
    9000005    2    3    3    0    0 -0.43934272514E+02  0.62626896891E+01  0.11613281559E+03  0.12461683927E+03  0.85489291606E+01 0.  0.
         22    1    3    3    0    0  0.43934272514E+02 -0.62626896891E+01  0.17264943214E+03  0.17826179624E+03  0.00000000000E+00 0. -1.
         22    1    4    4    0    0 -0.37097353807E+02  0.24574910519E+01  0.91269018494E+02  0.98550934336E+02  0.00000000000E+00 0.  1.
         22    1    4    4    0    0 -0.68369187071E+01  0.38051986373E+01  0.24863797091E+02  0.26065904931E+02  0.00000000000E+00 0.  1.
<mgrwt>
<rscale>  0 0.91325140E+02</rscale>
<asrwt>0</asrwt>
<pdfrwt beam="1">  1        1 0.45512362E-01 0.91325140E+02</pdfrwt>
<pdfrwt beam="2">  1       -1 0.10843379E-02 0.91325140E+02</pdfrwt>
<totfact> 0.12722718E+05</totfact>
</mgrwt>
</event>
<event>
 7    1  0.3565607E-009  0.9199602E+02  0.7818608E-02  0.1298089E+00
          1   -1    0    0  501    0  0.00000000000E+00  0.00000000000E+00  0.52437590228E+02  0.52437590470E+02  0.50400000000E-02 0. -1.
         -1   -1    0    0    0  501 -0.00000000000E+00 -0.00000000000E+00 -0.40349242121E+02  0.40349242436E+02  0.50400000000E-02 0.  1.
         23    2    1    2    0    0  0.00000000000E+00  0.35527136788E-14  0.12088348106E+02  0.92786832906E+02  0.91996022744E+02 0.  0.
    9000005    2    3    3    0    0  0.14525112113E+02  0.21173798644E+02  0.43477204366E+02  0.52233547858E+02  0.13370399824E+02 0.  0.
         22    1    3    3    0    0 -0.14525112113E+02 -0.21173798644E+02 -0.31388856260E+02  0.40553285048E+02  0.00000000000E+00 0.  1.
         22    1    4    4    0    0  0.11679538960E+01  0.72217829526E+01  0.22770296885E+02  0.23916619442E+02  0.00000000000E+00 0. -1.
         22    1    4    4    0    0  0.13357158217E+02  0.13952015691E+02  0.20706907481E+02  0.28316928416E+02  0.00000000000E+00 0. -1.
<mgrwt>
<rscale>  0 0.91996023E+02</rscale>
<asrwt>0</asrwt>
<pdfrwt beam="1">  1        1 0.80673217E-02 0.91996023E+02</pdfrwt>
<pdfrwt beam="2">  1       -1 0.62075757E-02 0.91996023E+02</pdfrwt>
<totfact> 0.92105425E+04</totfact>
</mgrwt>
</event>
<event>
 7    1  0.3565607E-009  0.9078994E+02  0.7818608E-02  0.1300950E+00
          1   -1    0    0  501    0  0.00000000000E+00  0.00000000000E+00  0.12605992245E+04  0.12605992245E+04  0.50400000000E-02 0. -1.
         -1   -1    0    0    0  501 -0.00000000000E+00 -0.00000000000E+00 -0.16346975130E+01  0.16347052825E+01  0.50400000000E-02 0.  1.
         23    2    1    2    0    0  0.00000000000E+00  0.00000000000E+00  0.12589645270E+04  0.12622339298E+04  0.90789940565E+02 0.  0.
    9000005    2    3    3    0    0 -0.29833020569E+02  0.10246969741E+02  0.10767027504E+04  0.10772626760E+04  0.14527594245E+02 0.  0.
         22    1    3    3    0    0  0.29833020569E+02 -0.10246969741E+02  0.18226177661E+03  0.18497125376E+03  0.00000000000E+00 0.  1.
         22    1    4    4    0    0 -0.29906244332E+02  0.90569344023E+01  0.87721737448E+03  0.87777373714E+03  0.00000000000E+00 0.  1.
         22    1    4    4    0    0  0.73223762702E-01  0.11900353384E+01  0.19948537589E+03  0.19948893889E+03  0.00000000000E+00 0.  1.
<mgrwt>
<rscale>  0 0.90789941E+02</rscale>
<asrwt>0</asrwt>
<pdfrwt beam="1">  1        1 0.19393802E+00 0.90789941E+02</pdfrwt>
<pdfrwt beam="2">  1       -1 0.25149294E-03 0.90789941E+02</pdfrwt>
<totfact> 0.12558987E+05</totfact>
</mgrwt>
</event>
<event>
 7    1  0.3565607E-009  0.9337541E+02  0.7818608E-02  0.1294878E+00
          1   -1    0    0  501    0  0.00000000000E+00  0.00000000000E+00  0.39251811060E+01  0.39251843418E+01  0.50400000000E-02 0. -1.
         -1   -1    0    0    0  501 -0.00000000000E+00 -0.00000000000E+00 -0.55532240068E+03  0.55532240071E+03  0.50400000000E-02 0.  1.
         23    2    1    2    0    0 -0.71054273576E-14  0.00000000000E+00 -0.55139721958E+03  0.55924758505E+03  0.93375412312E+02 0.  0.
    9000005    2    3    3    0    0 -0.42179409162E+02 -0.67716287383E+01 -0.37469695404E+03  0.37745665746E+03  0.15835510079E+02 0.  0.
         22    1    3    3    0    0  0.42179409162E+02  0.67716287383E+01 -0.17670026554E+03  0.18179092759E+03  0.00000000000E+00 0. -1.
         22    1    4    4    0    0  0.32449094896E+00  0.16079660867E+01 -0.58953253228E+01  0.61192899894E+01  0.00000000000E+00 0.  1.
         22    1    4    4    0    0 -0.42503900111E+02 -0.83795948250E+01 -0.36880162872E+03  0.37133736747E+03  0.00000000000E+00 0.  1.
<mgrwt>
<rscale>  0 0.93375412E+02</rscale>
<asrwt>0</asrwt>
<pdfrwt beam="1">  1        1 0.60387471E-03 0.93375412E+02</pdfrwt>
<pdfrwt beam="2">  1       -1 0.85434154E-01 0.93375412E+02</pdfrwt>
<totfact> 0.41283376E+04</totfact>
</mgrwt>
</event>
<event>
 7    1  0.3565607E-009  0.1078564E+03  0.7818608E-02  0.1264592E+00
         -1   -1    0    0    0  501 -0.00000000000E+00  0.00000000000E+00  0.48516139511E+02  0.48516139773E+02  0.50400000000E-02 0.  1.
          1   -1    0    0  501    0  0.00000000000E+00 -0.00000000000E+00 -0.59943984717E+02  0.59943984929E+02  0.50400000000E-02 0. -1.
         23    2    1    2    0    0  0.17763568394E-14  0.00000000000E+00 -0.11427845206E+02  0.10846012470E+03  0.10785639992E+03 0.  0.
    9000005    2    3    3    0    0 -0.14563762069E+02 -0.46847577595E+02  0.16732121784E+02  0.51893505278E+02  0.24846123500E+01 0.  0.
         22    1    3    3    0    0  0.14563762069E+02  0.46847577595E+02 -0.28159966990E+02  0.56566619423E+02  0.00000000000E+00 0.  1.
         22    1    4    4    0    0 -0.98275052017E+01 -0.33725529113E+02  0.12950911157E+02  0.37439514850E+02  0.00000000000E+00 0.  1.
         22    1    4    4    0    0 -0.47362568669E+01 -0.13122048482E+02  0.37812106272E+01  0.14453990428E+02  0.00000000000E+00 0.  1.
<mgrwt>
<rscale>  0 0.10785640E+03</rscale>
<asrwt>0</asrwt>
<pdfrwt beam="2">  1        1 0.92221515E-02 0.10785640E+03</pdfrwt>
<pdfrwt beam="1">  1       -1 0.74640215E-02 0.10785640E+03</pdfrwt>
<totfact> 0.60083466E+04</totfact>
</mgrwt>
</event>
<event>
 7    1  0.3565607E-009  0.9128068E+02  0.7818608E-02  0.1299780E+00
          1   -1    0    0  501    0  0.00000000000E+00  0.00000000000E+00  0.40778801523E+03  0.40778801526E+03  0.50400000000E-02 0. -1.
         -1   -1    0    0    0  501 -0.00000000000E+00 -0.00000000000E+00 -0.51081443392E+01  0.51081468256E+01  0.50400000000E-02 0.  1.
         23    2    1    2    0    0  0.00000000000E+00  0.00000000000E+00  0.40267987089E+03  0.41289616208E+03  0.91280678378E+02 0.  0.
    9000005    2    3    3    0    0 -0.35268175284E+02  0.18215733492E+02  0.29587375124E+03  0.29895229727E+03  0.15985688454E+02 0.  0.
         22    1    3    3    0    0  0.35268175284E+02 -0.18215733492E+02  0.10680611965E+03  0.11394386481E+03  0.00000000000E+00 0.  1.
         22    1    4    4    0    0 -0.38929867723E+01  0.65302428683E+01  0.95358119707E+02  0.95660704638E+02  0.00000000000E+00 0. -1.
         22    1    4    4    0    0 -0.31375188512E+02  0.11685490624E+02  0.20051563153E+03  0.20329159263E+03  0.00000000000E+00 0. -1.
<mgrwt>
<rscale>  0 0.91280678E+02</rscale>
<asrwt>0</asrwt>
<pdfrwt beam="1">  1        1 0.62736622E-01 0.91280678E+02</pdfrwt>
<pdfrwt beam="2">  1       -1 0.78586850E-03 0.91280678E+02</pdfrwt>
<totfact> 0.13490577E+05</totfact>
</mgrwt>
</event>
<event>
 7    1  0.3565607E-009  0.9117332E+02  0.7818608E-02  0.1300035E+00
          1   -1    0    0  501    0  0.00000000000E+00  0.00000000000E+00  0.51491305304E+01  0.51491329970E+01  0.50400000000E-02 0. -1.
         -1   -1    0    0    0  501 -0.00000000000E+00 -0.00000000000E+00 -0.40359102438E+03  0.40359102441E+03  0.50400000000E-02 0.  1.
         23    2    1    2    0    0  0.00000000000E+00  0.00000000000E+00 -0.39844189385E+03  0.40874015741E+03  0.91173315744E+02 0.  0.
    9000005    2    3    3    0    0 -0.73507552530E+01 -0.43632629003E+02 -0.22222246456E+03  0.22705051221E+03  0.14535178673E+02 0.  0.
         22    1    3    3    0    0  0.73507552530E+01  0.43632629003E+02 -0.17621942928E+03  0.18168964520E+03  0.00000000000E+00 0.  1.
         22    1    4    4    0    0  0.22244606148E+01 -0.68415124815E+00 -0.17380840632E+02  0.17535960454E+02  0.00000000000E+00 0.  1.
         22    1    4    4    0    0 -0.95752158678E+01 -0.42948477755E+02 -0.20484162393E+03  0.20951455175E+03  0.00000000000E+00 0.  1.
<mgrwt>
<rscale>  0 0.91173316E+02</rscale>
<asrwt>0</asrwt>
<pdfrwt beam="1">  1        1 0.79217444E-03 0.91173316E+02</pdfrwt>
<pdfrwt beam="2">  1       -1 0.62090902E-01 0.91173316E+02</pdfrwt>
<totfact> 0.53054199E+04</totfact>
</mgrwt>
</event>
<event>
 7    1  0.3565607E-009  0.8469001E+02  0.7818608E-02  0.1316245E+00
          1   -1    0    0  501    0  0.00000000000E+00  0.00000000000E+00  0.10474098529E+03  0.10474098541E+03  0.50400000000E-02 0. -1.
         -1   -1    0    0    0  501 -0.00000000000E+00 -0.00000000000E+00 -0.17119368631E+02  0.17119369373E+02  0.50400000000E-02 0.  1.
         23    2    1    2    0    0  0.00000000000E+00  0.44408920985E-15  0.87621616658E+02  0.12186035478E+03  0.84690013355E+02 0.  0.
    9000005    2    3    3    0    0  0.18880664733E+02  0.38731652525E+01 -0.10356795451E+02  0.22004207504E+02  0.23326007026E+01 0.  0.
         22    1    3    3    0    0 -0.18880664733E+02 -0.38731652525E+01  0.97978412109E+02  0.99856147278E+02  0.00000000000E+00 0. -1.
         22    1    4    4    0    0  0.18602105714E+02  0.40974455648E+01 -0.10251125414E+02  0.21631296064E+02  0.00000000000E+00 0.  1.
         22    1    4    4    0    0  0.27855901861E+00 -0.22428031235E+00 -0.10567003766E+00  0.37291144018E+00  0.00000000000E+00 0.  1.
<mgrwt>
<rscale>  0 0.84690013E+02</rscale>
<asrwt>0</asrwt>
<pdfrwt beam="1">  1        1 0.16113997E-01 0.84690013E+02</pdfrwt>
<pdfrwt beam="2">  1       -1 0.26337492E-02 0.84690013E+02</pdfrwt>
<totfact> 0.12854641E+05</totfact>
</mgrwt>
</event>
<event>
 7    1  0.3565607E-009  0.9313753E+02  0.7818608E-02  0.1295427E+00
          1   -1    0    0  501    0  0.00000000000E+00  0.00000000000E+00  0.41119084130E+03  0.41119084133E+03  0.50400000000E-02 0. -1.
         -1   -1    0    0    0  501 -0.00000000000E+00 -0.00000000000E+00 -0.52740699980E+01  0.52740724061E+01  0.50400000000E-02 0.  1.
         23    2    1    2    0    0  0.00000000000E+00  0.17763568394E-14  0.40591677131E+03  0.41646491374E+03  0.93137528149E+02 0.  0.
    9000005    2    3    3    0    0  0.24881345389E+02  0.10530773162E+02  0.37140411127E+03  0.37263453347E+03  0.13619953589E+02 0.  0.
         22    1    3    3    0    0 -0.24881345389E+02 -0.10530773162E+02  0.34512660036E+02  0.43830380269E+02  0.00000000000E+00 0.  1.
         22    1    4    4    0    0 -0.90936690537E+00  0.82222454374E+00  0.36709979214E+01  0.38703006482E+01  0.00000000000E+00 0. -1.
         22    1    4    4    0    0  0.25790712294E+02  0.97085486186E+01  0.36773311335E+03  0.36876423282E+03  0.00000000000E+00 0. -1.
<mgrwt>
<rscale>  0 0.93137528E+02</rscale>
<asrwt>0</asrwt>
<pdfrwt beam="1">  1        1 0.63260158E-01 0.93137528E+02</pdfrwt>
<pdfrwt beam="2">  1       -1 0.81139521E-03 0.93137528E+02</pdfrwt>
<totfact> 0.12804277E+05</totfact>
</mgrwt>
</event>
<event>
 7    1  0.3565607E-009  0.9160959E+02  0.7818608E-02  0.1299000E+00
         -1   -1    0    0    0  501 -0.00000000000E+00  0.00000000000E+00  0.70215331542E+03  0.70215331544E+03  0.50400000000E-02 0.  1.
          1   -1    0    0  501    0  0.00000000000E+00 -0.00000000000E+00 -0.29880621069E+01  0.29880663574E+01  0.50400000000E-02 0. -1.
         23    2    1    2    0    0  0.71054273576E-14  0.00000000000E+00  0.69916525331E+03  0.70514138180E+03  0.91609589455E+02 0.  0.
    9000005    2    3    3    0    0  0.35529711308E+02  0.89346705866E+01  0.55824572706E+03  0.55953746151E+03  0.10084162050E+02 0.  0.
         22    1    3    3    0    0 -0.35529711308E+02 -0.89346705866E+01  0.14091952625E+03  0.14560392029E+03  0.00000000000E+00 0. -1.
         22    1    4    4    0    0  0.73260509374E+01  0.63020029113E+01  0.13691480747E+03  0.13725542164E+03  0.00000000000E+00 0. -1.
         22    1    4    4    0    0  0.28203660371E+02  0.26326676753E+01  0.42133091959E+03  0.42228203988E+03  0.00000000000E+00 0. -1.
<mgrwt>
<rscale>  0 0.91609589E+02</rscale>
<asrwt>0</asrwt>
<pdfrwt beam="2">  1        1 0.45970211E-03 0.91609589E+02</pdfrwt>
<pdfrwt beam="1">  1       -1 0.10802361E+00 0.91609589E+02</pdfrwt>
<totfact> 0.36295255E+04</totfact>
</mgrwt>
</event>
<event>
 7    1  0.3565607E-009  0.8861733E+02  0.7818608E-02  0.1306235E+00
          1   -1    0    0  501    0  0.00000000000E+00  0.00000000000E+00  0.33496564125E+02  0.33496564504E+02  0.50400000000E-02 0. -1.
         -1   -1    0    0    0  501 -0.00000000000E+00 -0.00000000000E+00 -0.58610721309E+02  0.58610721526E+02  0.50400000000E-02 0.  1.
         23    2    1    2    0    0  0.00000000000E+00 -0.71054273576E-14 -0.25114157184E+02  0.92107286030E+02  0.88617330408E+02 0.  0.
    9000005    2    3    3    0    0 -0.21070802021E+02  0.35631729244E+02  0.18461938287E+01  0.42706280438E+02  0.10335334075E+02 0.  0.
         22    1    3    3    0    0  0.21070802021E+02 -0.35631729244E+02 -0.26960351013E+02  0.49401005592E+02  0.00000000000E+00 0.  1.
         22    1    4    4    0    0 -0.10859982344E+01  0.50083246333E+01 -0.28082449659E+01  0.58437100874E+01  0.00000000000E+00 0. -1.
         22    1    4    4    0    0 -0.19984803787E+02  0.30623404611E+02  0.46544387945E+01  0.36862570351E+02  0.00000000000E+00 0. -1.
<mgrwt>
<rscale>  0 0.88617330E+02</rscale>
<asrwt>0</asrwt>
<pdfrwt beam="1">  1        1 0.51533176E-02 0.88617330E+02</pdfrwt>
<pdfrwt beam="2">  1       -1 0.90170341E-02 0.88617330E+02</pdfrwt>
<totfact> 0.95653747E+04</totfact>
</mgrwt>
</event>
<event>
 7    1  0.3565607E-009  0.9140110E+02  0.7818608E-02  0.1299494E+00
          1   -1    0    0  501    0  0.00000000000E+00  0.00000000000E+00  0.32476173875E+03  0.32476173879E+03  0.50400000000E-02 0. -1.
         -1   -1    0    0    0  501 -0.00000000000E+00 -0.00000000000E+00 -0.64309917856E+01  0.64309937605E+01  0.50400000000E-02 0.  1.
         23    2    1    2    0    0  0.00000000000E+00 -0.35527136788E-14  0.31833074696E+03  0.33119273255E+03  0.91401103006E+02 0.  0.
    9000005    2    3    3    0    0 -0.37429770480E+02 -0.16060696113E+02  0.23072685494E+03  0.23458333562E+03  0.11641566942E+02 0.  0.
         22    1    3    3    0    0  0.37429770480E+02  0.16060696113E+02  0.87603892021E+02  0.96609396929E+02  0.00000000000E+00 0. -1.
         22    1    4    4    0    0 -0.32659743782E+02 -0.17906085242E+02  0.20262431335E+03  0.20601917172E+03  0.00000000000E+00 0.  1.
         22    1    4    4    0    0 -0.47700266980E+01  0.18453891291E+01  0.28102541588E+02  0.28564163902E+02  0.00000000000E+00 0.  1.
<mgrwt>
<rscale>  0 0.91401103E+02</rscale>
<asrwt>0</asrwt>
<pdfrwt beam="1">  1        1 0.49963336E-01 0.91401103E+02</pdfrwt>
<pdfrwt beam="2">  1       -1 0.98938369E-03 0.91401103E+02</pdfrwt>
<totfact> 0.12919979E+05</totfact>
</mgrwt>
</event>
<event>
 7    1  0.3565607E-009  0.9426917E+02  0.7818608E-02  0.1292831E+00
          1   -1    0    0  501    0  0.00000000000E+00  0.00000000000E+00  0.26951943448E+02  0.26951943919E+02  0.50400000000E-02 0. -1.
         -1   -1    0    0    0  501 -0.00000000000E+00 -0.00000000000E+00 -0.82430749044E+02  0.82430749198E+02  0.50400000000E-02 0.  1.
         23    2    1    2    0    0  0.00000000000E+00  0.00000000000E+00 -0.55478805596E+02  0.10938269312E+03  0.94269166132E+02 0.  0.
    9000005    2    3    3    0    0 -0.65744434557E+00 -0.27520064946E+02 -0.72093325386E+02  0.77229489925E+02  0.30266055426E+01 0.  0.
         22    1    3    3    0    0  0.65744434557E+00  0.27520064946E+02  0.16614519790E+02  0.32153203193E+02  0.00000000000E+00 0. -1.
         22    1    4    4    0    0 -0.76227394094E+00 -0.87373770773E+01 -0.19461545160E+02  0.21346535076E+02  0.00000000000E+00 0.  1.
         22    1    4    4    0    0  0.10482959537E+00 -0.18782687869E+02 -0.52631780226E+02  0.55882954848E+02  0.00000000000E+00 0.  1.
<mgrwt>
<rscale>  0 0.94269166E+02</rscale>
<asrwt>0</asrwt>
<pdfrwt beam="1">  1        1 0.41464529E-02 0.94269166E+02</pdfrwt>
<pdfrwt beam="2">  1       -1 0.12681654E-01 0.94269166E+02</pdfrwt>
<totfact> 0.77314337E+04</totfact>
</mgrwt>
</event>
<event>
 7    1  0.3565607E-009  0.7675314E+02  0.7818608E-02  0.1338526E+00
         -1   -1    0    0    0  501 -0.00000000000E+00  0.00000000000E+00  0.11331262017E+02  0.11331263137E+02  0.50400000000E-02 0.  1.
          1   -1    0    0  501    0  0.00000000000E+00 -0.00000000000E+00 -0.12997325738E+03  0.12997325748E+03  0.50400000000E-02 0. -1.
         23    2    1    2    0    0  0.00000000000E+00  0.00000000000E+00 -0.11864199537E+03  0.14130452062E+03  0.76753139888E+02 0.  0.
    9000005    2    3    3    0    0  0.30441664724E+02 -0.13776127481E+01 -0.10194988855E+03  0.10655946057E+03  0.57049183136E+01 0.  0.
         22    1    3    3    0    0 -0.30441664724E+02  0.13776127481E+01 -0.16692106819E+02  0.34745060053E+02  0.00000000000E+00 0. -1.
         22    1    4    4    0    0  0.16488229091E+02  0.22481208105E+00 -0.64121343317E+02  0.66207695231E+02  0.00000000000E+00 0.  1.
         22    1    4    4    0    0  0.13953435633E+02 -0.16024248291E+01 -0.37828545232E+02  0.40351765335E+02  0.00000000000E+00 0.  1.
<mgrwt>
<rscale>  0 0.76753140E+02</rscale>
<asrwt>0</asrwt>
<pdfrwt beam="2">  1        1 0.19995885E-01 0.76753140E+02</pdfrwt>
<pdfrwt beam="1">  1       -1 0.17432713E-02 0.76753140E+02</pdfrwt>
<totfact> 0.17327952E+05</totfact>
</mgrwt>
</event>
<event>
 7    1  0.3565607E-009  0.1046482E+03  0.7818608E-02  0.1270814E+00
         -1   -1    0    0    0  501 -0.00000000000E+00  0.00000000000E+00  0.38535514490E+02  0.38535514820E+02  0.50400000000E-02 0.  1.
          1   -1    0    0  501    0  0.00000000000E+00 -0.00000000000E+00 -0.71046430175E+02  0.71046430354E+02  0.50400000000E-02 0. -1.
         23    2    1    2    0    0 -0.35527136788E-14  0.00000000000E+00 -0.32510915685E+02  0.10958194517E+03  0.10464818713E+03 0.  0.
    9000005    2    3    3    0    0  0.27194341508E+02 -0.31608092410E+02  0.16647754543E+02  0.45121270538E+02  0.44919492118E+01 0.  0.
         22    1    3    3    0    0 -0.27194341508E+02  0.31608092410E+02 -0.49158670228E+02  0.64460674636E+02  0.00000000000E+00 0. -1.
         22    1    4    4    0    0  0.27317054830E+02 -0.31067452861E+02  0.16286831838E+02  0.44459745874E+02  0.00000000000E+00 0.  1.
         22    1    4    4    0    0 -0.12271332189E+00 -0.54063954904E+00  0.36092270498E+00  0.66152466343E+00  0.00000000000E+00 0.  1.
<mgrwt>
<rscale>  0 0.10464819E+03</rscale>
<asrwt>0</asrwt>
<pdfrwt beam="2">  1        1 0.10930220E-01 0.10464819E+03</pdfrwt>
<pdfrwt beam="1">  1       -1 0.59285407E-02 0.10464819E+03</pdfrwt>
<totfact> 0.67368265E+04</totfact>
</mgrwt>
</event>
<event>
 7    1  0.3565607E-009  0.9364105E+02  0.7818608E-02  0.1294266E+00
          1   -1    0    0  501    0  0.00000000000E+00  0.00000000000E+00  0.32864669729E+03  0.32864669732E+03  0.50400000000E-02 0. -1.
         -1   -1    0    0    0  501 -0.00000000000E+00 -0.00000000000E+00 -0.66702669566E+01  0.66702688606E+01  0.50400000000E-02 0.  1.
         23    2    1    2    0    0  0.00000000000E+00  0.00000000000E+00  0.32197643033E+03  0.33531696619E+03  0.93641049353E+02 0.  0.
    9000005    2    3    3    0    0 -0.20323644768E+01 -0.45886305495E+02  0.13639046310E+03  0.14413162477E+03  0.78665938337E+01 0.  0.
         22    1    3    3    0    0  0.20323644768E+01  0.45886305495E+02  0.18558596723E+03  0.19118534141E+03  0.00000000000E+00 0.  1.
         22    1    4    4    0    0 -0.14372955190E+01 -0.19867416708E+02  0.71321652973E+02  0.74051051633E+02  0.00000000000E+00 0.  1.
         22    1    4    4    0    0 -0.59506895784E+00 -0.26018888787E+02  0.65068810125E+02  0.70080573142E+02  0.00000000000E+00 0.  1.
<mgrwt>
<rscale>  0 0.93641049E+02</rscale>
<asrwt>0</asrwt>
<pdfrwt beam="1">  1        1 0.50561016E-01 0.93641049E+02</pdfrwt>
<pdfrwt beam="2">  1       -1 0.10261954E-02 0.93641049E+02</pdfrwt>
<totfact> 0.12138801E+05</totfact>
</mgrwt>
</event>
<event>
 7    1  0.3565607E-009  0.9206412E+02  0.7818608E-02  0.1297929E+00
          1   -1    0    0  501    0  0.00000000000E+00  0.00000000000E+00  0.16828867321E+04  0.16828867321E+04  0.50400000000E-02 0. -1.
         -1   -1    0    0    0  501 -0.00000000000E+00 -0.00000000000E+00 -0.12591114237E+01  0.12591215108E+01  0.50400000000E-02 0.  1.
         23    2    1    2    0    0 -0.35527136788E-14  0.00000000000E+00  0.16816276207E+04  0.16841458537E+04  0.92064116997E+02 0.  0.
    9000005    2    3    3    0    0  0.18611548929E+02  0.17486167201E+02  0.15384898204E+04  0.15387478286E+04  0.11907850569E+02 0.  0.
         22    1    3    3    0    0 -0.18611548929E+02 -0.17486167201E+02  0.14313780035E+03  0.14539802504E+03  0.00000000000E+00 0.  1.
         22    1    4    4    0    0  0.18315150147E+02  0.11084561612E+02  0.12773504355E+04  0.12775298225E+04  0.00000000000E+00 0. -1.
         22    1    4    4    0    0  0.29639878200E+00  0.64016055895E+01  0.26113938482E+03  0.26121800610E+03  0.00000000000E+00 0. -1.
<mgrwt>
<rscale>  0 0.92064117E+02</rscale>
<asrwt>0</asrwt>
<pdfrwt beam="1">  1        1 0.25890614E+00 0.92064117E+02</pdfrwt>
<pdfrwt beam="2">  1       -1 0.19370986E-03 0.92064117E+02</pdfrwt>
<totfact> 0.96748274E+04</totfact>
</mgrwt>
</event>
<event>
 7    1  0.3565607E-009  0.8780430E+02  0.7818608E-02  0.1308258E+00
         -1   -1    0    0    0  501 -0.00000000000E+00  0.00000000000E+00  0.17985728906E+01  0.17985799521E+01  0.50400000000E-02 0.  1.
          1   -1    0    0  501    0  0.00000000000E+00 -0.00000000000E+00 -0.10716245823E+04  0.10716245823E+04  0.50400000000E-02 0. -1.
         23    2    1    2    0    0  0.00000000000E+00  0.35527136788E-14 -0.10698260094E+04  0.10734231623E+04  0.87804298734E+02 0.  0.
    9000005    2    3    3    0    0  0.20289726767E+02  0.26083175237E+02 -0.88353148616E+03  0.88422048143E+03  0.11223533271E+02 0.  0.
         22    1    3    3    0    0 -0.20289726767E+02 -0.26083175237E+02 -0.18629452328E+03  0.18920268086E+03  0.00000000000E+00 0.  1.
         22    1    4    4    0    0  0.40201810461E+01  0.13090879763E+02 -0.28847840493E+03  0.28880326020E+03  0.00000000000E+00 0.  1.
         22    1    4    4    0    0  0.16269545721E+02  0.12992295474E+02 -0.59505308123E+03  0.59541722124E+03  0.00000000000E+00 0.  1.
<mgrwt>
<rscale>  0 0.87804299E+02</rscale>
<asrwt>0</asrwt>
<pdfrwt beam="2">  1        1 0.16486481E+00 0.87804299E+02</pdfrwt>
<pdfrwt beam="1">  1       -1 0.27670492E-03 0.87804299E+02</pdfrwt>
<totfact> 0.14715042E+05</totfact>
</mgrwt>
</event>
<event>
 7    1  0.3565607E-009  0.9031397E+02  0.7818608E-02  0.1302093E+00
          1   -1    0    0  501    0  0.00000000000E+00  0.00000000000E+00  0.16311083683E+03  0.16311083690E+03  0.50400000000E-02 0. -1.
         -1   -1    0    0    0  501 -0.00000000000E+00 -0.00000000000E+00 -0.12501640838E+02  0.12501641853E+02  0.50400000000E-02 0.  1.
         23    2    1    2    0    0  0.00000000000E+00  0.00000000000E+00  0.15060919599E+03  0.17561247876E+03  0.90313967796E+02 0.  0.
    9000005    2    3    3    0    0  0.35037697821E+02  0.15063598290E+02  0.35512657759E+02  0.54361642164E+02  0.15475368029E+02 0.  0.
         22    1    3    3    0    0 -0.35037697821E+02 -0.15063598290E+02  0.11509653823E+03  0.12125083659E+03  0.00000000000E+00 0. -1.
         22    1    4    4    0    0  0.17249804958E+02  0.15692339099E+02  0.21323986548E+02  0.31599330369E+02  0.00000000000E+00 0. -1.
         22    1    4    4    0    0  0.17787892864E+02 -0.62874080867E+00  0.14188671211E+02  0.22762311795E+02  0.00000000000E+00 0. -1.
<mgrwt>
<rscale>  0 0.90313968E+02</rscale>
<asrwt>0</asrwt>
<pdfrwt beam="1">  1        1 0.25093973E-01 0.90313968E+02</pdfrwt>
<pdfrwt beam="2">  1       -1 0.19233296E-02 0.90313968E+02</pdfrwt>
<totfact> 0.11683851E+05</totfact>
</mgrwt>
</event>
<event>
 7    1  0.3565607E-009  0.9052191E+02  0.7818608E-02  0.1301593E+00
          1   -1    0    0  501    0  0.00000000000E+00  0.00000000000E+00  0.19786935427E+03  0.19786935434E+03  0.50400000000E-02 0. -1.
         -1   -1    0    0    0  501 -0.00000000000E+00 -0.00000000000E+00 -0.10353063179E+02  0.10353064406E+02  0.50400000000E-02 0.  1.
         23    2    1    2    0    0  0.00000000000E+00  0.71054273576E-14  0.18751629109E+03  0.20822241874E+03  0.90521910286E+02 0.  0.
    9000005    2    3    3    0    0  0.12707287431E+02  0.41784518017E+02  0.12096864723E+03  0.12862336094E+03  0.17703859224E+01 0.  0.
         22    1    3    3    0    0 -0.12707287431E+02 -0.41784518017E+02  0.66547643859E+02  0.79599057802E+02  0.00000000000E+00 0.  1.
         22    1    4    4    0    0  0.12766854246E+02  0.41648137315E+02  0.12054152503E+03  0.12817105432E+03  0.00000000000E+00 0. -1.
         22    1    4    4    0    0 -0.59566815013E-01  0.13638070159E+00  0.42712220365E+00  0.45230661952E+00  0.00000000000E+00 0. -1.
<mgrwt>
<rscale>  0 0.90521910E+02</rscale>
<asrwt>0</asrwt>
<pdfrwt beam="1">  1        1 0.30441438E-01 0.90521910E+02</pdfrwt>
<pdfrwt beam="2">  1       -1 0.15927791E-02 0.90521910E+02</pdfrwt>
<totfact> 0.12046562E+05</totfact>
</mgrwt>
</event>
<event>
 7    1  0.3565607E-009  0.8817273E+02  0.7818608E-02  0.1307338E+00
          1   -1    0    0  501    0  0.00000000000E+00  0.00000000000E+00  0.19207216984E+02  0.19207217646E+02  0.50400000000E-02 0. -1.
         -1   -1    0    0    0  501 -0.00000000000E+00 -0.00000000000E+00 -0.10119152397E+03  0.10119152410E+03  0.50400000000E-02 0.  1.
         23    2    1    2    0    0  0.71054273576E-14 -0.17763568394E-14 -0.81984306987E+02  0.12039874174E+03  0.88172730598E+02 0.  0.
    9000005    2    3    3    0    0  0.40223231587E+02 -0.12449144135E+02 -0.26738197257E+02  0.50936362074E+02  0.10329193568E+02 0.  0.
         22    1    3    3    0    0 -0.40223231587E+02  0.12449144135E+02 -0.55246109730E+02  0.69462379669E+02  0.00000000000E+00 0.  1.
         22    1    4    4    0    0  0.74482352775E+01  0.23862885603E+00 -0.86242239486E+01  0.11397823968E+02  0.00000000000E+00 0.  1.
         22    1    4    4    0    0  0.32774996309E+02 -0.12687772991E+02 -0.18113973308E+02  0.39538538106E+02  0.00000000000E+00 0.  1.
<mgrwt>
<rscale>  0 0.88172731E+02</rscale>
<asrwt>0</asrwt>
<pdfrwt beam="1">  1        1 0.29549566E-02 0.88172731E+02</pdfrwt>
<pdfrwt beam="2">  1       -1 0.15567927E-01 0.88172731E+02</pdfrwt>
<totfact> 0.88498083E+04</totfact>
</mgrwt>
</event>
<event>
 7    1  0.3565607E-009  0.9597158E+02  0.7818608E-02  0.1289003E+00
          1   -1    0    0  501    0  0.00000000000E+00  0.00000000000E+00  0.61814242083E+03  0.61814242085E+03  0.50400000000E-02 0.  1.
         -1   -1    0    0    0  501 -0.00000000000E+00 -0.00000000000E+00 -0.37250879995E+01  0.37250914091E+01  0.50400000000E-02 0. -1.
         23    2    1    2    0    0  0.00000000000E+00  0.00000000000E+00  0.61441733283E+03  0.62186751226E+03  0.95971578717E+02 0.  0.
    9000005    2    3    3    0    0 -0.33591206465E+02 -0.11681780295E+02  0.51541577031E+03  0.51667177792E+03  0.56104070773E+01 0.  0.
         22    1    3    3    0    0  0.33591206465E+02  0.11681780295E+02  0.99001562519E+02  0.10519573434E+03  0.00000000000E+00 0. -1.
         22    1    4    4    0    0 -0.89721685555E+01 -0.18148299020E+01  0.16498113259E+03  0.16523488593E+03  0.00000000000E+00 0. -1.
         22    1    4    4    0    0 -0.24619037910E+02 -0.98669503930E+01  0.35043463772E+03  0.35143689199E+03  0.00000000000E+00 0. -1.
<mgrwt>
<rscale>  0 0.95971579E+02</rscale>
<asrwt>0</asrwt>
<pdfrwt beam="1">  1        1 0.95098852E-01 0.95971579E+02</pdfrwt>
<pdfrwt beam="2">  1       -1 0.57309062E-03 0.95971579E+02</pdfrwt>
<totfact> 0.12378290E+05</totfact>
</mgrwt>
</event>
<event>
 7    1  0.3565607E-009  0.9382177E+02  0.7818608E-02  0.1293852E+00
          1   -1    0    0  501    0  0.00000000000E+00  0.00000000000E+00  0.63707598791E+02  0.63707598990E+02  0.50400000000E-02 0. -1.
         -1   -1    0    0    0  501 -0.00000000000E+00 -0.00000000000E+00 -0.34542676354E+02  0.34542676722E+02  0.50400000000E-02 0.  1.
         23    2    1    2    0    0  0.17763568394E-14  0.00000000000E+00  0.29164922437E+02  0.98250275712E+02  0.93821767073E+02 0.  0.
    9000005    2    3    3    0    0  0.11523951417E+02  0.25499382807E+02  0.53812343860E+02  0.60960661037E+02  0.61166872205E+01 0.  0.
         22    1    3    3    0    0 -0.11523951417E+02 -0.25499382807E+02 -0.24647421423E+02  0.37289614675E+02  0.00000000000E+00 0.  1.
         22    1    4    4    0    0  0.59695824568E+01  0.10794640137E+02  0.17686329246E+02  0.21563079850E+02  0.00000000000E+00 0. -1.
         22    1    4    4    0    0  0.55543689600E+01  0.14704742670E+02  0.36126014613E+02  0.39397581187E+02  0.00000000000E+00 0. -1.
<mgrwt>
<rscale>  0 0.93821767E+02</rscale>
<asrwt>0</asrwt>
<pdfrwt beam="1">  1        1 0.98011691E-02 0.93821767E+02</pdfrwt>
<pdfrwt beam="2">  1       -1 0.53142579E-02 0.93821767E+02</pdfrwt>
<totfact> 0.89831371E+04</totfact>
</mgrwt>
</event>
<event>
 7    1  0.3565607E-009  0.8487158E+02  0.7818608E-02  0.1315769E+00
         -1   -1    0    0    0  501 -0.00000000000E+00  0.00000000000E+00  0.38182854537E+01  0.38182887800E+01  0.50400000000E-02 0.  1.
          1   -1    0    0  501    0  0.00000000000E+00 -0.00000000000E+00 -0.47162409036E+03  0.47162409038E+03  0.50400000000E-02 0. -1.
         23    2    1    2    0    0  0.00000000000E+00  0.17763568394E-14 -0.46780580490E+03  0.47544237916E+03  0.84871578304E+02 0.  0.
    9000005    2    3    3    0    0  0.56310332359E+01 -0.14355462745E+02 -0.45526294911E+03  0.45556497799E+03  0.61080677664E+01 0.  0.
         22    1    3    3    0    0 -0.56310332359E+01  0.14355462745E+02 -0.12542855788E+02  0.19877401169E+02  0.00000000000E+00 0.  1.
         22    1    4    4    0    0  0.49485968966E+01 -0.57516603891E+01 -0.26123256792E+03  0.26134273426E+03  0.00000000000E+00 0. -1.
         22    1    4    4    0    0  0.68243633929E+00 -0.86038023560E+01 -0.19403038119E+03  0.19422224373E+03  0.00000000000E+00 0. -1.
<mgrwt>
<rscale>  0 0.84871578E+02</rscale>
<asrwt>0</asrwt>
<pdfrwt beam="2">  1        1 0.72557506E-01 0.84871578E+02</pdfrwt>
<pdfrwt beam="1">  1       -1 0.58742916E-03 0.84871578E+02</pdfrwt>
<totfact> 0.16705290E+05</totfact>
</mgrwt>
</event>
<event>
 7    1  0.3565607E-009  0.9089213E+02  0.7818608E-02  0.1300706E+00
          1   -1    0    0  501    0  0.00000000000E+00  0.00000000000E+00  0.39379626136E+02  0.39379626459E+02  0.50400000000E-02 0. -1.
         -1   -1    0    0    0  501 -0.00000000000E+00 -0.00000000000E+00 -0.52447039463E+02  0.52447039705E+02  0.50400000000E-02 0.  1.
         23    2    1    2    0    0  0.00000000000E+00  0.35527136788E-14 -0.13067413327E+02  0.91826666164E+02  0.90892130175E+02 0.  0.
    9000005    2    3    3    0    0  0.19585412008E+02  0.27804533827E+02 -0.36334667771E+02  0.50619317375E+02  0.92426589579E+01 0.  0.
         22    1    3    3    0    0 -0.19585412008E+02 -0.27804533827E+02  0.23267254444E+02  0.41207348789E+02  0.00000000000E+00 0.  1.
         22    1    4    4    0    0  0.15746373031E+02  0.23284131865E+02 -0.24111137346E+02  0.37033039363E+02  0.00000000000E+00 0. -1.
         22    1    4    4    0    0  0.38390389775E+01  0.45204019615E+01 -0.12223530425E+02  0.13586278012E+02  0.00000000000E+00 0. -1.
<mgrwt>
<rscale>  0 0.90892130E+02</rscale>
<asrwt>0</asrwt>
<pdfrwt beam="1">  1        1 0.60584041E-02 0.90892130E+02</pdfrwt>
<pdfrwt beam="2">  1       -1 0.80687753E-02 0.90892130E+02</pdfrwt>
<totfact> 0.91251403E+04</totfact>
</mgrwt>
</event>
<event>
 6    1  0.3565607E-009  0.1429422E+03  0.7818608E-02  0.1209424E+00
          1   -1    0    0  501    0  0.00000000000E+00  0.00000000000E+00  0.10666583215E+03  0.10666583227E+03  0.50400000000E-02 0. -1.
         -1   -1    0    0    0  501 -0.00000000000E+00 -0.00000000000E+00 -0.47889009067E+02  0.47889009332E+02  0.50400000000E-02 0.  1.
    9000005    2    1    2    0    0  0.69207645619E+02  0.86305641633E+01  0.45988478083E+02  0.83648377740E+02  0.42339263230E+01 0.  0.
         22    1    1    2    0    0 -0.69207645619E+02 -0.86305641633E+01  0.12788345003E+02  0.70906463865E+02  0.00000000000E+00 0.  1.
         22    1    3    3    0    0  0.23796659915E+02  0.32823788487E+01  0.18244622096E+02  0.30164901283E+02  0.00000000000E+00 0. -1.
         22    1    3    3    0    0  0.45410985704E+02  0.53481853145E+01  0.27743855988E+02  0.53483476456E+02  0.00000000000E+00 0. -1.
<mgrwt>
<rscale>  0 0.14294224E+03</rscale>
<asrwt>0</asrwt>
<pdfrwt beam="1">  1        1 0.16410128E-01 0.14294224E+03</pdfrwt>
<pdfrwt beam="2">  1       -1 0.73675399E-02 0.14294224E+03</pdfrwt>
<totfact> 0.29873469E+04</totfact>
</mgrwt>
</event>
<event>
 6    1  0.3565607E-009  0.1346906E+03  0.7818608E-02  0.1220657E+00
         -1   -1    0    0    0  501 -0.00000000000E+00  0.00000000000E+00  0.45351349374E+02  0.45351349654E+02  0.50400000000E-02 0.  1.
          1   -1    0    0  501    0  0.00000000000E+00 -0.00000000000E+00 -0.10000567613E+03  0.10000567626E+03  0.50400000000E-02 0. -1.
    9000005    2    1    2    0    0 -0.83652123316E+00 -0.63909964516E+02 -0.47328326988E+02  0.81023103250E+02  0.15478675415E+02 0.  0.
         22    1    1    2    0    0  0.83652123316E+00  0.63909964516E+02 -0.73259997677E+01  0.64333922660E+02  0.00000000000E+00 0.  1.
         22    1    3    3    0    0  0.34799456971E+01 -0.87763394439E+01 -0.23243847234E+01  0.97230098443E+01  0.00000000000E+00 0.  1.
         22    1    3    3    0    0 -0.43164669302E+01 -0.55133625072E+02 -0.45003942265E+02  0.71300093406E+02  0.00000000000E+00 0.  1.
<mgrwt>
<rscale>  0 0.13469064E+03</rscale>
<asrwt>0</asrwt>
<pdfrwt beam="2">  1        1 0.15385489E-01 0.13469064E+03</pdfrwt>
<pdfrwt beam="1">  1       -1 0.69771308E-02 0.13469064E+03</pdfrwt>
<totfact> 0.35002677E+04</totfact>
</mgrwt>
</event>
<event>
 7    1  0.3565607E-009  0.9127925E+02  0.7818608E-02  0.1299783E+00
          1   -1    0    0  501    0  0.00000000000E+00  0.00000000000E+00  0.21294119896E+03  0.21294119902E+03  0.50400000000E-02 0. -1.
         -1   -1    0    0    0  501 -0.00000000000E+00 -0.00000000000E+00 -0.97819278137E+01  0.97819291121E+01  0.50400000000E-02 0.  1.
         23    2    1    2    0    0  0.00000000000E+00  0.35527136788E-14  0.20315927115E+03  0.22272312813E+03  0.91279254774E+02 0.  0.
    9000005    2    3    3    0    0 -0.15714331198E+01  0.23710474329E+02  0.19589171691E+03  0.19787411730E+03  0.14695085806E+02 0.  0.
         22    1    3    3    0    0  0.15714331198E+01 -0.23710474329E+02  0.72675542367E+01  0.24849010836E+02  0.00000000000E+00 0.  1.
         22    1    4    4    0    0 -0.33119178626E+01  0.43082649983E+00  0.51431315174E+02  0.51539640976E+02  0.00000000000E+00 0.  1.
         22    1    4    4    0    0  0.17404847428E+01  0.23279647829E+02  0.14446040174E+03  0.14633447632E+03  0.00000000000E+00 0.  1.
<mgrwt>
<rscale>  0 0.91279255E+02</rscale>
<asrwt>0</asrwt>
<pdfrwt beam="1">  1        1 0.32760181E-01 0.91279255E+02</pdfrwt>
<pdfrwt beam="2">  1       -1 0.15049122E-02 0.91279255E+02</pdfrwt>
<totfact> 0.11949825E+05</totfact>
</mgrwt>
</event>
<event>
 7    1  0.3565607E-009  0.9215617E+02  0.7818608E-02  0.1297713E+00
         -1   -1    0    0    0  501 -0.00000000000E+00  0.00000000000E+00  0.41882457671E+02  0.41882457975E+02  0.50400000000E-02 0.  1.
          1   -1    0    0  501    0  0.00000000000E+00 -0.00000000000E+00 -0.50694011258E+02  0.50694011509E+02  0.50400000000E-02 0. -1.
         23    2    1    2    0    0 -0.17763568394E-14  0.00000000000E+00 -0.88115535867E+01  0.92576469483E+02  0.92156167593E+02 0.  0.
    9000005    2    3    3    0    0  0.11317288507E+02  0.37536403740E+02 -0.28661123310E+02  0.48632550187E+02  0.25694986731E+01 0.  0.
         22    1    3    3    0    0 -0.11317288507E+02 -0.37536403740E+02  0.19849569723E+02  0.43943919296E+02  0.00000000000E+00 0.  1.
         22    1    4    4    0    0  0.53865911671E+01  0.13721106273E+02 -0.11177344261E+02  0.18499112046E+02  0.00000000000E+00 0. -1.
         22    1    4    4    0    0  0.59306973400E+01  0.23815297467E+02 -0.17483779049E+02  0.30133438141E+02  0.00000000000E+00 0. -1.
<mgrwt>
<rscale>  0 0.92156168E+02</rscale>
<asrwt>0</asrwt>
<pdfrwt beam="2">  1        1 0.77990787E-02 0.92156168E+02</pdfrwt>
<pdfrwt beam="1">  1       -1 0.64434551E-02 0.92156168E+02</pdfrwt>
<totfact> 0.91190332E+04</totfact>
</mgrwt>
</event>
<event>
 7    1  0.3565607E-009  0.9116532E+02  0.7818608E-02  0.1300054E+00
          1   -1    0    0  501    0  0.00000000000E+00  0.00000000000E+00  0.60722412010E+02  0.60722412219E+02  0.50400000000E-02 0. -1.
         -1   -1    0    0    0  501 -0.00000000000E+00 -0.00000000000E+00 -0.34217661857E+02  0.34217662228E+02  0.50400000000E-02 0.  1.
         23    2    1    2    0    0  0.00000000000E+00  0.00000000000E+00  0.26504750153E+02  0.94940074447E+02  0.91165322109E+02 0.  0.
    9000005    2    3    3    0    0 -0.41038514569E+02 -0.16187004070E+02  0.92085357447E+01  0.47555078809E+02  0.15182542975E+02 0.  0.
         22    1    3    3    0    0  0.41038514569E+02  0.16187004070E+02  0.17296214409E+02  0.47384995638E+02  0.00000000000E+00 0.  1.
         22    1    4    4    0    0 -0.19332758419E+02  0.38968311825E+00  0.34216779304E+01  0.19637089420E+02  0.00000000000E+00 0. -1.
         22    1    4    4    0    0 -0.21705756149E+02 -0.16576687188E+02  0.57868578142E+01  0.27917989389E+02  0.00000000000E+00 0. -1.
<mgrwt>
<rscale>  0 0.91165322E+02</rscale>
<asrwt>0</asrwt>
<pdfrwt beam="1">  1        1 0.93419096E-02 0.91165322E+02</pdfrwt>
<pdfrwt beam="2">  1       -1 0.52642557E-02 0.91165322E+02</pdfrwt>
<totfact> 0.96579940E+04</totfact>
</mgrwt>
</event>
<event>
 7    1  0.3565607E-009  0.8974887E+02  0.7818608E-02  0.1303461E+00
         -1   -1    0    0    0  501 -0.00000000000E+00  0.00000000000E+00  0.19578572300E+02  0.19578572948E+02  0.50400000000E-02 0.  1.
          1   -1    0    0  501    0  0.00000000000E+00 -0.00000000000E+00 -0.10285299306E+03  0.10285299318E+03  0.50400000000E-02 0. -1.
         23    2    1    2    0    0 -0.17763568394E-14  0.17763568394E-14 -0.83274420761E+02  0.12243156613E+03  0.89748867584E+02 0.  0.
    9000005    2    3    3    0    0 -0.86994256337E+01 -0.12488153656E+02 -0.98844785037E+02  0.10065841221E+03  0.11410102160E+02 0.  0.
         22    1    3    3    0    0  0.86994256337E+01  0.12488153656E+02  0.15570364276E+02  0.21773153924E+02  0.00000000000E+00 0.  1.
         22    1    4    4    0    0 -0.10695422291E+02 -0.13118715879E+02 -0.88452454087E+02  0.90057367263E+02  0.00000000000E+00 0.  1.
         22    1    4    4    0    0  0.19959966569E+01  0.63056222394E+00 -0.10392330950E+02  0.10601044946E+02  0.00000000000E+00 0.  1.
<mgrwt>
<rscale>  0 0.89748868E+02</rscale>
<asrwt>0</asrwt>
<pdfrwt beam="2">  1        1 0.15823537E-01 0.89748868E+02</pdfrwt>
<pdfrwt beam="1">  1       -1 0.30120882E-02 0.89748868E+02</pdfrwt>
<totfact> 0.10954549E+05</totfact>
</mgrwt>
</event>
<event>
 7    1  0.3565607E-009  0.9458705E+02  0.7818608E-02  0.1292109E+00
          1   -1    0    0  501    0  0.00000000000E+00  0.00000000000E+00  0.42813555805E+03  0.42813555808E+03  0.50400000000E-02 0. -1.
         -1   -1    0    0    0  501 -0.00000000000E+00 -0.00000000000E+00 -0.52242257854E+01  0.52242282165E+01  0.50400000000E-02 0.  1.
         23    2    1    2    0    0  0.00000000000E+00 -0.35527136788E-14  0.42291133227E+03  0.43335978630E+03  0.94587046792E+02 0.  0.
    9000005    2    3    3    0    0 -0.34128230674E+02 -0.30565792749E+02  0.25681376070E+03  0.26105944649E+03  0.99861456520E+01 0.  0.
         22    1    3    3    0    0  0.34128230674E+02  0.30565792749E+02  0.16609757157E+03  0.17230033980E+03  0.00000000000E+00 0.  1.
         22    1    4    4    0    0 -0.18110632235E+02 -0.21391065130E+02  0.13766008283E+03  0.14048441577E+03  0.00000000000E+00 0. -1.
         22    1    4    4    0    0 -0.16017598439E+02 -0.91747276190E+01  0.11915367786E+03  0.12057503073E+03  0.00000000000E+00 0. -1.
<mgrwt>
<rscale>  0 0.94587047E+02</rscale>
<asrwt>0</asrwt>
<pdfrwt beam="1">  1        1 0.65866993E-01 0.94587047E+02</pdfrwt>
<pdfrwt beam="2">  1       -1 0.80372743E-03 0.94587047E+02</pdfrwt>
<totfact> 0.12366460E+05</totfact>
</mgrwt>
</event>
<event>
 7    1  0.3565607E-009  0.9057510E+02  0.7818608E-02  0.1301465E+00
         -1   -1    0    0    0  501 -0.00000000000E+00  0.00000000000E+00  0.92568910513E+02  0.92568910650E+02  0.50400000000E-02 0.  1.
          1   -1    0    0  501    0  0.00000000000E+00 -0.00000000000E+00 -0.22156060285E+02  0.22156060858E+02  0.50400000000E-02 0. -1.
         23    2    1    2    0    0  0.00000000000E+00  0.00000000000E+00  0.70412850228E+02  0.11472497151E+03  0.90575104805E+02 0.  0.
    9000005    2    3    3    0    0  0.10175161187E+02 -0.42917577597E+02  0.28254519352E+02  0.53710405754E+02  0.11875918934E+02 0.  0.
         22    1    3    3    0    0 -0.10175161187E+02  0.42917577597E+02  0.42158330876E+02  0.61014565754E+02  0.00000000000E+00 0.  1.
         22    1    4    4    0    0  0.78881544994E+01 -0.41789277008E+02  0.28428735837E+02  0.51154273287E+02  0.00000000000E+00 0.  1.
         22    1    4    4    0    0  0.22870066876E+01 -0.11283005888E+01 -0.17421648437E+00  0.25561324674E+01  0.00000000000E+00 0.  1.
<mgrwt>
<rscale>  0 0.90575105E+02</rscale>
<asrwt>0</asrwt>
<pdfrwt beam="2">  1        1 0.34086248E-02 0.90575105E+02</pdfrwt>
<pdfrwt beam="1">  1       -1 0.14241371E-01 0.90575105E+02</pdfrwt>
<totfact> 0.83942173E+04</totfact>
</mgrwt>
</event>
<event>
 7    1  0.3565607E-009  0.9660051E+02  0.7818608E-02  0.1287611E+00
         -1   -1    0    0    0  501 -0.00000000000E+00  0.00000000000E+00  0.47543394092E+02  0.47543394359E+02  0.50400000000E-02 0.  1.
          1   -1    0    0  501    0  0.00000000000E+00 -0.00000000000E+00 -0.49069168110E+02  0.49069168369E+02  0.50400000000E-02 0. -1.
         23    2    1    2    0    0  0.00000000000E+00  0.00000000000E+00 -0.15257740176E+01  0.96612562728E+02  0.96600513925E+02 0.  0.
    9000005    2    3    3    0    0  0.26410479057E+02 -0.14391981657E+02  0.36498213128E+02  0.48130956541E+02  0.89345887412E+01 0.  0.
         22    1    3    3    0    0 -0.26410479057E+02  0.14391981657E+02 -0.38023987146E+02  0.48481606187E+02  0.00000000000E+00 0. -1.
         22    1    4    4    0    0  0.11325562860E+02 -0.13646624977E+01  0.14425383509E+02  0.18390822907E+02  0.00000000000E+00 0.  1.
         22    1    4    4    0    0  0.15084916196E+02 -0.13027319160E+02  0.22072829620E+02  0.29740133634E+02  0.00000000000E+00 0.  1.
<mgrwt>
<rscale>  0 0.96600514E+02</rscale>
<asrwt>0</asrwt>
<pdfrwt beam="2">  1        1 0.75491028E-02 0.96600514E+02</pdfrwt>
<pdfrwt beam="1">  1       -1 0.73143684E-02 0.96600514E+02</pdfrwt>
<totfact> 0.79473119E+04</totfact>
</mgrwt>
</event>
<event>
 7    1  0.3565607E-009  0.8649082E+02  0.7818608E-02  0.1311579E+00
         -1   -1    0    0    0  501 -0.00000000000E+00  0.00000000000E+00  0.22374712889E+01  0.22374769653E+01  0.50400000000E-02 0.  1.
          1   -1    0    0  501    0  0.00000000000E+00 -0.00000000000E+00 -0.83583784597E+03  0.83583784599E+03  0.50400000000E-02 0. -1.
         23    2    1    2    0    0 -0.35527136788E-14 -0.35527136788E-14 -0.83360037468E+03  0.83807532295E+03  0.86490821884E+02 0.  0.
    9000005    2    3    3    0    0 -0.17045426124E+02 -0.20236346126E+02 -0.74785085662E+03  0.74833661277E+03  0.51697210684E+01 0.  0.
         22    1    3    3    0    0  0.17045426124E+02  0.20236346126E+02 -0.85749518064E+02  0.89738710178E+02  0.00000000000E+00 0.  1.
         22    1    4    4    0    0 -0.64608133036E+01 -0.44581511935E+01 -0.18921240072E+03  0.18937515625E+03  0.00000000000E+00 0. -1.
         22    1    4    4    0    0 -0.10584612821E+02 -0.15778194932E+02 -0.55863845590E+03  0.55896145652E+03  0.00000000000E+00 0. -1.
<mgrwt>
<rscale>  0 0.86490822E+02</rscale>
<asrwt>0</asrwt>
<pdfrwt beam="2">  1        1 0.12859019E+00 0.86490822E+02</pdfrwt>
<pdfrwt beam="1">  1       -1 0.34422746E-03 0.86490822E+02</pdfrwt>
<totfact> 0.16166655E+05</totfact>
</mgrwt>
</event>
<event>
 7    1  0.3583969E-009  0.9137476E+02  0.7818608E-02  0.1299556E+00
         -1   -1    0    0    0  501 -0.00000000000E+00  0.00000000000E+00  0.36837041927E+01  0.36837076406E+01  0.50400000000E-02 0.  1.
          1   -1    0    0  501    0  0.00000000000E+00 -0.00000000000E+00 -0.56664039178E+03  0.56664039180E+03  0.50400000000E-02 0. -1.
         23    2    1    2    0    0  0.00000000000E+00  0.00000000000E+00 -0.56295668759E+03  0.57032409944E+03  0.91374757489E+02 0.  0.
    9000005    2    3    3    0    0 -0.38750282670E+02 -0.22038812782E+02 -0.30393106803E+03  0.30749037775E+03  0.13745712590E+02 0.  0.
         22    1    3    3    0    0  0.38750282670E+02  0.22038812782E+02 -0.25902561955E+03  0.26283372170E+03  0.00000000000E+00 0.  1.
         22    1    4    4    0    0 -0.17852571506E+02 -0.88220952529E+01 -0.18137152918E+03  0.18246143503E+03  0.00000000000E+00 0.  1.
         22    1    4    4    0    0 -0.20897711164E+02 -0.13216717529E+02 -0.12255953885E+03  0.12502894272E+03  0.00000000000E+00 0.  1.
<mgrwt>
<rscale>  0 0.91374757E+02</rscale>
<asrwt>0</asrwt>
<pdfrwt beam="2">  1        1 0.87175376E-01 0.91374757E+02</pdfrwt>
<pdfrwt beam="1">  1       -1 0.56672444E-03 0.91374757E+02</pdfrwt>
<totfact> 0.14021156E+05</totfact>
</mgrwt>
</event>
<event>
 7    1  0.3565607E-009  0.8986403E+02  0.7818608E-02  0.1303181E+00
          1   -1    0    0  501    0  0.00000000000E+00  0.00000000000E+00  0.18425633638E+02  0.18425634327E+02  0.50400000000E-02 0. -1.
         -1   -1    0    0    0  501 -0.00000000000E+00 -0.00000000000E+00 -0.10956941358E+03  0.10956941369E+03  0.50400000000E-02 0.  1.
         23    2    1    2    0    0 -0.35527136788E-14  0.35527136788E-14 -0.91143779939E+02  0.12799504802E+03  0.89864028933E+02 0.  0.
    9000005    2    3    3    0    0  0.30044859134E+02 -0.31218624490E+02 -0.59697557116E+02  0.74458509046E+02  0.10147668121E+02 0.  0.
         22    1    3    3    0    0 -0.30044859134E+02  0.31218624490E+02 -0.31446222824E+02  0.53536538974E+02  0.00000000000E+00 0. -1.
         22    1    4    4    0    0  0.38936905388E+01 -0.40424754888E+01 -0.30040327461E+01  0.63660542591E+01  0.00000000000E+00 0.  1.
         22    1    4    4    0    0  0.26151168595E+02 -0.27176149002E+02 -0.56693524370E+02  0.68092454787E+02  0.00000000000E+00 0.  1.
<mgrwt>
<rscale>  0 0.89864029E+02</rscale>
<asrwt>0</asrwt>
<pdfrwt beam="1">  1        1 0.28347130E-02 0.89864029E+02</pdfrwt>
<pdfrwt beam="2">  1       -1 0.16856833E-01 0.89864029E+02</pdfrwt>
<totfact> 0.83014456E+04</totfact>
</mgrwt>
</event>
<event>
 7    1  0.3565607E-009  0.9103886E+02  0.7818608E-02  0.1300355E+00
         -1   -1    0    0    0  501 -0.00000000000E+00  0.00000000000E+00  0.18962007193E+02  0.18962007863E+02  0.50400000000E-02 0.  1.
          1   -1    0    0  501    0  0.00000000000E+00 -0.00000000000E+00 -0.10927209450E+03  0.10927209462E+03  0.50400000000E-02 0. -1.
         23    2    1    2    0    0  0.00000000000E+00  0.35527136788E-14 -0.90310087309E+02  0.12823410248E+03  0.91038855272E+02 0.  0.
    9000005    2    3    3    0    0  0.38299539079E+02 -0.17051095107E+02 -0.22554211619E+02  0.48556921126E+02  0.95649145046E+01 0.  0.
         22    1    3    3    0    0 -0.38299539079E+02  0.17051095107E+02 -0.67755875691E+02  0.79677181355E+02  0.00000000000E+00 0. -1.
         22    1    4    4    0    0  0.36636449566E+02 -0.13459259231E+02 -0.20807769672E+02  0.44230581893E+02  0.00000000000E+00 0.  1.
         22    1    4    4    0    0  0.16630895129E+01 -0.35918358758E+01 -0.17464419469E+01  0.43263392332E+01  0.00000000000E+00 0.  1.
<mgrwt>
<rscale>  0 0.91038855E+02</rscale>
<asrwt>0</asrwt>
<pdfrwt beam="2">  1        1 0.16811091E-01 0.91038855E+02</pdfrwt>
<pdfrwt beam="1">  1       -1 0.29172320E-02 0.91038855E+02</pdfrwt>
<totfact> 0.10645799E+05</totfact>
</mgrwt>
</event>
<event>
 7    1  0.3565607E-009  0.8666667E+02  0.7818608E-02  0.1311131E+00
          1   -1    0    0  501    0  0.00000000000E+00  0.00000000000E+00  0.26119867211E+03  0.26119867216E+03  0.50400000000E-02 0. -1.
         -1   -1    0    0    0  501 -0.00000000000E+00 -0.00000000000E+00 -0.71890776334E+01  0.71890794001E+01  0.50400000000E-02 0.  1.
         23    2    1    2    0    0  0.00000000000E+00  0.00000000000E+00  0.25400959448E+03  0.26838775156E+03  0.86666666607E+02 0.  0.
    9000005    2    3    3    0    0  0.16991914834E+02  0.39339656549E+02  0.12633439585E+03  0.13371299486E+03  0.90802903599E+01 0.  0.
         22    1    3    3    0    0 -0.16991914834E+02 -0.39339656549E+02  0.12767519863E+03  0.13467475670E+03  0.00000000000E+00 0. -1.
         22    1    4    4    0    0  0.72642781404E+01  0.26265441524E+02  0.71879482518E+02  0.76871992054E+02  0.00000000000E+00 0. -1.
         22    1    4    4    0    0  0.97276366935E+01  0.13074215025E+02  0.54454913331E+02  0.56841002806E+02  0.00000000000E+00 0. -1.
<mgrwt>
<rscale>  0 0.86666667E+02</rscale>
<asrwt>0</asrwt>
<pdfrwt beam="1">  1        1 0.40184413E-01 0.86666667E+02</pdfrwt>
<pdfrwt beam="2">  1       -1 0.11060120E-02 0.86666667E+02</pdfrwt>
<totfact> 0.14276096E+05</totfact>
</mgrwt>
</event>
<event>
 7    1  0.3565607E-009  0.9309040E+02  0.7818608E-02  0.1295536E+00
         -1   -1    0    0    0  501 -0.00000000000E+00  0.00000000000E+00  0.47460498516E+02  0.47460498784E+02  0.50400000000E-02 0.  1.
          1   -1    0    0  501    0  0.00000000000E+00 -0.00000000000E+00 -0.45647555570E+02  0.45647555848E+02  0.50400000000E-02 0. -1.
         23    2    1    2    0    0  0.00000000000E+00  0.00000000000E+00  0.18129429463E+01  0.93108054632E+02  0.93090402702E+02 0.  0.
    9000005    2    3    3    0    0 -0.22681445160E+01  0.39478449779E+02 -0.22866767011E+02  0.46494960333E+02  0.86717833432E+01 0.  0.
         22    1    3    3    0    0  0.22681445160E+01 -0.39478449779E+02  0.24679709957E+02  0.46613094298E+02  0.00000000000E+00 0.  1.
         22    1    4    4    0    0 -0.47196815504E+01  0.12290735095E+02 -0.81191272032E+01  0.15467960100E+02  0.00000000000E+00 0.  1.
         22    1    4    4    0    0  0.24515370345E+01  0.27187714684E+02 -0.14747639807E+02  0.31027000233E+02  0.00000000000E+00 0.  1.
<mgrwt>
<rscale>  0 0.93090403E+02</rscale>
<asrwt>0</asrwt>
<pdfrwt beam="2">  1        1 0.70227009E-02 0.93090403E+02</pdfrwt>
<pdfrwt beam="1">  1       -1 0.73016152E-02 0.93090403E+02</pdfrwt>
<totfact> 0.87239063E+04</totfact>
</mgrwt>
</event>
<event>
 7    1  0.3565607E-009  0.8955506E+02  0.7818608E-02  0.1303933E+00
          1   -1    0    0  501    0  0.00000000000E+00  0.00000000000E+00  0.35914151861E+02  0.35914152215E+02  0.50400000000E-02 0.  1.
         -1   -1    0    0    0  501 -0.00000000000E+00 -0.00000000000E+00 -0.55828326535E+02  0.55828326763E+02  0.50400000000E-02 0. -1.
         23    2    1    2    0    0  0.00000000000E+00  0.00000000000E+00 -0.19914174674E+02  0.91742478977E+02  0.89555056228E+02 0.  0.
    9000005    2    3    3    0    0  0.16999392939E+02  0.25331619292E+02  0.22392383999E+02  0.39583920686E+02  0.11610237703E+02 0.  0.
         22    1    3    3    0    0 -0.16999392939E+02 -0.25331619292E+02 -0.42306558674E+02  0.52158558291E+02  0.00000000000E+00 0. -1.
         22    1    4    4    0    0  0.38934251321E+01  0.15335184014E+02  0.81371622782E+01  0.17791572104E+02  0.00000000000E+00 0. -1.
         22    1    4    4    0    0  0.13105967807E+02  0.99964352778E+01  0.14255221721E+02  0.21792348582E+02  0.00000000000E+00 0. -1.
<mgrwt>
<rscale>  0 0.89555056E+02</rscale>
<asrwt>0</asrwt>
<pdfrwt beam="1">  1        1 0.55252541E-02 0.89555056E+02</pdfrwt>
<pdfrwt beam="2">  1       -1 0.85889734E-02 0.89555056E+02</pdfrwt>
<totfact> 0.93832913E+04</totfact>
</mgrwt>
</event>
<event>
 7    1  0.3565607E-009  0.9200001E+02  0.7818608E-02  0.1298079E+00
         -1   -1    0    0    0  501 -0.00000000000E+00  0.00000000000E+00  0.96329437601E+02  0.96329437733E+02  0.50400000000E-02 0.  1.
          1   -1    0    0  501    0  0.00000000000E+00 -0.00000000000E+00 -0.21966289248E+02  0.21966289826E+02  0.50400000000E-02 0. -1.
         23    2    1    2    0    0 -0.35527136788E-14  0.00000000000E+00  0.74363148353E+02  0.11829572756E+03  0.92000007205E+02 0.  0.
    9000005    2    3    3    0    0  0.29794562262E+02  0.21088313813E+02  0.72356109095E+02  0.81738086409E+02  0.10643088206E+02 0.  0.
         22    1    3    3    0    0 -0.29794562262E+02 -0.21088313813E+02  0.20070392577E+01  0.36557641150E+02  0.00000000000E+00 0. -1.
         22    1    4    4    0    0  0.22229990109E+02  0.20766288156E+02  0.56593774706E+02  0.64251587681E+02  0.00000000000E+00 0.  1.
         22    1    4    4    0    0  0.75645721525E+01  0.32202565703E+00  0.15762334389E+02  0.17486498728E+02  0.00000000000E+00 0.  1.
<mgrwt>
<rscale>  0 0.92000007E+02</rscale>
<asrwt>0</asrwt>
<pdfrwt beam="2">  1        1 0.33794292E-02 0.92000007E+02</pdfrwt>
<pdfrwt beam="1">  1       -1 0.14819913E-01 0.92000007E+02</pdfrwt>
<totfact> 0.80058468E+04</totfact>
</mgrwt>
</event>
<event>
 7    1  0.3565607E-009  0.9118210E+02  0.7818608E-02  0.1300014E+00
         -1   -1    0    0    0  501 -0.00000000000E+00  0.00000000000E+00  0.14344543594E+03  0.14344543603E+03  0.50400000000E-02 0.  1.
          1   -1    0    0  501    0  0.00000000000E+00 -0.00000000000E+00 -0.14490134725E+02  0.14490135601E+02  0.50400000000E-02 0. -1.
         23    2    1    2    0    0  0.00000000000E+00  0.00000000000E+00  0.12895530122E+03  0.15793557163E+03  0.91182098433E+02 0.  0.
    9000005    2    3    3    0    0 -0.13688412152E+02 -0.42216656322E+02  0.62455106621E+02  0.77986246559E+02  0.14546326378E+02 0.  0.
         22    1    3    3    0    0  0.13688412152E+02  0.42216656322E+02  0.66500194597E+02  0.79949325073E+02  0.00000000000E+00 0. -1.
         22    1    4    4    0    0 -0.13971418355E+01 -0.23253427046E+02  0.24456190923E+02  0.33775422265E+02  0.00000000000E+00 0.  1.
         22    1    4    4    0    0 -0.12291270317E+02 -0.18963229275E+02  0.37998915697E+02  0.44210824294E+02  0.00000000000E+00 0.  1.
<mgrwt>
<rscale>  0 0.91182098E+02</rscale>
<asrwt>0</asrwt>
<pdfrwt beam="2">  1        1 0.22292515E-02 0.91182098E+02</pdfrwt>
<pdfrwt beam="1">  1       -1 0.22068529E-01 0.91182098E+02</pdfrwt>
<totfact> 0.75552595E+04</totfact>
</mgrwt>
</event>
<event>
 7    1  0.3565607E-009  0.9232788E+02  0.7818608E-02  0.1297310E+00
          1   -1    0    0  501    0  0.00000000000E+00  0.00000000000E+00  0.41607519607E+02  0.41607519912E+02  0.50400000000E-02 0. -1.
         -1   -1    0    0    0  501 -0.00000000000E+00 -0.00000000000E+00 -0.51219327696E+02  0.51219327944E+02  0.50400000000E-02 0.  1.
         23    2    1    2    0    0  0.00000000000E+00  0.71054273576E-14 -0.96118080892E+01  0.92826847855E+02  0.92327876766E+02 0.  0.
    9000005    2    3    3    0    0  0.18050399475E+02  0.37803232997E+02 -0.24119527218E+02  0.48494294799E+02  0.38786194141E+01 0.  0.
         22    1    3    3    0    0 -0.18050399475E+02 -0.37803232997E+02  0.14507719129E+02  0.44332553057E+02  0.00000000000E+00 0. -1.
         22    1    4    4    0    0  0.79780194995E+01  0.14502814793E+02 -0.11427213656E+02  0.20113717807E+02  0.00000000000E+00 0. -1.
         22    1    4    4    0    0  0.10072379975E+02  0.23300418204E+02 -0.12692313561E+02  0.28380576992E+02  0.00000000000E+00 0. -1.
<mgrwt>
<rscale>  0 0.92327877E+02</rscale>
<asrwt>0</asrwt>
<pdfrwt beam="1">  1        1 0.64011570E-02 0.92327877E+02</pdfrwt>
<pdfrwt beam="2">  1       -1 0.78798965E-02 0.92327877E+02</pdfrwt>
<totfact> 0.88031259E+04</totfact>
</mgrwt>
</event>
<event>
 7    1  0.3565607E-009  0.8994634E+02  0.7818608E-02  0.1302982E+00
          1   -1    0    0  501    0  0.00000000000E+00  0.00000000000E+00  0.96281418888E+01  0.96281432079E+01  0.50400000000E-02 0. -1.
         -1   -1    0    0    0  501 -0.00000000000E+00 -0.00000000000E+00 -0.21007020573E+03  0.21007020579E+03  0.50400000000E-02 0.  1.
         23    2    1    2    0    0  0.00000000000E+00  0.00000000000E+00 -0.20044206384E+03  0.21969834900E+03  0.89946337311E+02 0.  0.
    9000005    2    3    3    0    0 -0.40407394234E+02 -0.90379628784E+01 -0.60348444390E+02  0.73613905977E+02  0.79139200863E+01 0.  0.
         22    1    3    3    0    0  0.40407394234E+02  0.90379628784E+01 -0.14009361945E+03  0.14608444302E+03  0.00000000000E+00 0.  1.
         22    1    4    4    0    0 -0.27814937538E+02 -0.36057241405E+01 -0.45056394332E+02  0.53073069131E+02  0.00000000000E+00 0.  1.
         22    1    4    4    0    0 -0.12592456696E+02 -0.54322387379E+01 -0.15292050058E+02  0.20540836846E+02  0.00000000000E+00 0.  1.
<mgrwt>
<rscale>  0 0.89946337E+02</rscale>
<asrwt>0</asrwt>
<pdfrwt beam="1">  1        1 0.14812529E-02 0.89946337E+02</pdfrwt>
<pdfrwt beam="2">  1       -1 0.32318490E-01 0.89946337E+02</pdfrwt>
<totfact> 0.70903336E+04</totfact>
</mgrwt>
</event>
<event>
 7    1  0.3565607E-009  0.9302855E+02  0.7818608E-02  0.1295679E+00
          1   -1    0    0  501    0  0.00000000000E+00  0.00000000000E+00  0.25418212875E+03  0.25418212880E+03  0.50400000000E-02 0. -1.
         -1   -1    0    0    0  501 -0.00000000000E+00 -0.00000000000E+00 -0.85119192603E+01  0.85119207524E+01  0.50400000000E-02 0.  1.
         23    2    1    2    0    0  0.00000000000E+00  0.00000000000E+00  0.24567020949E+03  0.26269404956E+03  0.93028553894E+02 0.  0.
    9000005    2    3    3    0    0  0.85447124741E+01 -0.70309299597E+01  0.25019434146E+03  0.25073939116E+03  0.12271417715E+02 0.  0.
         22    1    3    3    0    0 -0.85447124741E+01  0.70309299597E+01 -0.45241319660E+01  0.11954658398E+02  0.00000000000E+00 0.  1.
         22    1    4    4    0    0  0.92890530856E+01 -0.84506582843E+00  0.10568705620E+03  0.10609785338E+03  0.00000000000E+00 0. -1.
         22    1    4    4    0    0 -0.74434061152E+00 -0.61858641312E+01  0.14450728526E+03  0.14464153778E+03  0.00000000000E+00 0. -1.
<mgrwt>
<rscale>  0 0.93028554E+02</rscale>
<asrwt>0</asrwt>
<pdfrwt beam="1">  1        1 0.39104939E-01 0.93028554E+02</pdfrwt>
<pdfrwt beam="2">  1       -1 0.13095263E-02 0.93028554E+02</pdfrwt>
<totfact> 0.11757239E+05</totfact>
</mgrwt>
</event>
<event>
 7    1  0.3565607E-009  0.9492184E+02  0.7818608E-02  0.1291352E+00
         -1   -1    0    0    0  501 -0.00000000000E+00  0.00000000000E+00  0.69040623965E+03  0.69040623967E+03  0.50400000000E-02 0.  1.
          1   -1    0    0  501    0  0.00000000000E+00 -0.00000000000E+00 -0.32626261943E+01  0.32626300871E+01  0.50400000000E-02 0. -1.
         23    2    1    2    0    0 -0.35527136788E-14  0.00000000000E+00  0.68714361345E+03  0.69366886975E+03  0.94921838134E+02 0.  0.
    9000005    2    3    3    0    0 -0.29153541899E+02  0.31961125896E+02  0.48193130288E+03  0.48394635073E+03  0.86514228342E+01 0.  0.
         22    1    3    3    0    0  0.29153541899E+02 -0.31961125896E+02  0.20521231057E+03  0.20972251902E+03  0.00000000000E+00 0. -1.
         22    1    4    4    0    0 -0.10495706814E+02  0.17788349257E+02  0.23507409833E+03  0.23597969602E+03  0.00000000000E+00 0.  1.
         22    1    4    4    0    0 -0.18657835085E+02  0.14172776639E+02  0.24685720455E+03  0.24796665471E+03  0.00000000000E+00 0.  1.
<mgrwt>
<rscale>  0 0.94921838E+02</rscale>
<asrwt>0</asrwt>
<pdfrwt beam="2">  1        1 0.50194340E-03 0.94921838E+02</pdfrwt>
<pdfrwt beam="1">  1       -1 0.10621622E+00 0.94921838E+02</pdfrwt>
<totfact> 0.33531006E+04</totfact>
</mgrwt>
</event>
<event>
 7    1  0.3565607E-009  0.9194675E+02  0.7818608E-02  0.1298205E+00
         -1   -1    0    0    0  501 -0.00000000000E+00  0.00000000000E+00  0.85024944279E+01  0.85024959217E+01  0.50400000000E-02 0.  1.
          1   -1    0    0  501    0  0.00000000000E+00 -0.00000000000E+00 -0.24858009132E+03  0.24858009137E+03  0.50400000000E-02 0. -1.
         23    2    1    2    0    0  0.00000000000E+00  0.00000000000E+00 -0.24007759689E+03  0.25708258729E+03  0.91946746324E+02 0.  0.
    9000005    2    3    3    0    0 -0.22729521623E+02  0.25588075870E+02 -0.34804473262E+02  0.48975797243E+02  0.39870511172E+01 0.  0.
         22    1    3    3    0    0  0.22729521623E+02 -0.25588075870E+02 -0.20527312363E+03  0.20810679005E+03  0.00000000000E+00 0. -1.
         22    1    4    4    0    0 -0.21312781457E+02  0.25143263910E+02 -0.33040934904E+02  0.46670351967E+02  0.00000000000E+00 0. -1.
         22    1    4    4    0    0 -0.14167401660E+01  0.44481196086E+00 -0.17635383586E+01  0.23054452760E+01  0.00000000000E+00 0. -1.
<mgrwt>
<rscale>  0 0.91946746E+02</rscale>
<asrwt>0</asrwt>
<pdfrwt beam="2">  1        1 0.38243085E-01 0.91946746E+02</pdfrwt>
<pdfrwt beam="1">  1       -1 0.13080764E-02 0.91946746E+02</pdfrwt>
<totfact> 0.12078545E+05</totfact>
</mgrwt>
</event>
<event>
 7    1  0.3565607E-009  0.9128855E+02  0.7818608E-02  0.1299761E+00
          1   -1    0    0  501    0  0.00000000000E+00  0.00000000000E+00  0.42947942637E+03  0.42947942640E+03  0.50400000000E-02 0. -1.
         -1   -1    0    0    0  501 -0.00000000000E+00 -0.00000000000E+00 -0.48509874054E+01  0.48509900236E+01  0.50400000000E-02 0.  1.
         23    2    1    2    0    0  0.00000000000E+00  0.00000000000E+00  0.42462843896E+03  0.43433041642E+03  0.91288550502E+02 0.  0.
    9000005    2    3    3    0    0 -0.34884668788E+02 -0.27865877097E+02  0.16939440879E+03  0.17522067639E+03  0.37911055143E+01 0.  0.
         22    1    3    3    0    0  0.34884668788E+02  0.27865877097E+02  0.25523403018E+03  0.25910974004E+03  0.00000000000E+00 0.  1.
         22    1    4    4    0    0 -0.29023353918E+02 -0.24688768611E+02  0.14149727489E+03  0.14653794447E+03  0.00000000000E+00 0.  1.
         22    1    4    4    0    0 -0.58613148700E+01 -0.31771084864E+01  0.27897133896E+02  0.28682731913E+02  0.00000000000E+00 0.  1.
<mgrwt>
<rscale>  0 0.91288551E+02</rscale>
<asrwt>0</asrwt>
<pdfrwt beam="1">  1        1 0.66073757E-01 0.91288551E+02</pdfrwt>
<pdfrwt beam="2">  1       -1 0.74630597E-03 0.91288551E+02</pdfrwt>
<totfact> 0.13597289E+05</totfact>
</mgrwt>
</event>
<event>
 7    1  0.3565607E-009  0.9102731E+02  0.7818608E-02  0.1300383E+00
         -1   -1    0    0    0  501 -0.00000000000E+00  0.00000000000E+00  0.20116066034E+03  0.20116066040E+03  0.50400000000E-02 0.  1.
          1   -1    0    0  501    0  0.00000000000E+00 -0.00000000000E+00 -0.10297701606E+02  0.10297702839E+02  0.50400000000E-02 0. -1.
         23    2    1    2    0    0 -0.35527136788E-14  0.00000000000E+00  0.19086295873E+03  0.21145836324E+03  0.91027305619E+02 0.  0.
    9000005    2    3    3    0    0  0.16810455499E+02  0.41239900890E+02  0.82769032957E+02  0.94549776605E+02  0.10277480234E+02 0.  0.
         22    1    3    3    0    0 -0.16810455499E+02 -0.41239900890E+02  0.10809392578E+03  0.11690858664E+03  0.00000000000E+00 0. -1.
         22    1    4    4    0    0  0.11833702572E+02  0.15756305586E+02  0.37545931311E+02  0.42402766894E+02  0.00000000000E+00 0. -1.
         22    1    4    4    0    0  0.49767529277E+01  0.25483595304E+02  0.45223101646E+02  0.52147009711E+02  0.00000000000E+00 0. -1.
<mgrwt>
<rscale>  0 0.91027306E+02</rscale>
<asrwt>0</asrwt>
<pdfrwt beam="2">  1        1 0.15842621E-02 0.91027306E+02</pdfrwt>
<pdfrwt beam="1">  1       -1 0.30947790E-01 0.91027306E+02</pdfrwt>
<totfact> 0.69606817E+04</totfact>
</mgrwt>
</event>
<event>
 7    1  0.3565607E-009  0.9263553E+02  0.7818608E-02  0.1296592E+00
          1   -1    0    0  501    0  0.00000000000E+00  0.00000000000E+00  0.25585059335E+03  0.25585059339E+03  0.50400000000E-02 0. -1.
         -1   -1    0    0    0  501 -0.00000000000E+00 -0.00000000000E+00 -0.83851086314E+01  0.83851101460E+01  0.50400000000E-02 0.  1.
         23    2    1    2    0    0  0.35527136788E-14  0.35527136788E-14  0.24746548471E+03  0.26423570354E+03  0.92635527208E+02 0.  0.
    9000005    2    3    3    0    0  0.26821138638E+02  0.20796117738E+02  0.21246091766E+03  0.21547945568E+03  0.11828030105E+02 0.  0.
         22    1    3    3    0    0 -0.26821138638E+02 -0.20796117738E+02  0.35004567050E+02  0.48756247857E+02  0.00000000000E+00 0.  1.
         22    1    4    4    0    0 -0.30011967828E+00  0.39573198732E+01  0.20188284908E+02  0.20574676180E+02  0.00000000000E+00 0.  1.
         22    1    4    4    0    0  0.27121258316E+02  0.16838797865E+02  0.19227263276E+03  0.19490477950E+03  0.00000000000E+00 0.  1.
<mgrwt>
<rscale>  0 0.92635527E+02</rscale>
<asrwt>0</asrwt>
<pdfrwt beam="1">  1        1 0.39361632E-01 0.92635527E+02</pdfrwt>
<pdfrwt beam="2">  1       -1 0.12900168E-02 0.92635527E+02</pdfrwt>
<totfact> 0.11906469E+05</totfact>
</mgrwt>
</event>
<event>
 7    1  0.3565607E-009  0.9130553E+02  0.7818608E-02  0.1299721E+00
         -1   -1    0    0    0  501 -0.00000000000E+00  0.00000000000E+00  0.89442243033E+01  0.89442257233E+01  0.50400000000E-02 0.  1.
          1   -1    0    0  501    0  0.00000000000E+00 -0.00000000000E+00 -0.23301906472E+03  0.23301906477E+03  0.50400000000E-02 0. -1.
         23    2    1    2    0    0  0.00000000000E+00 -0.71054273576E-14 -0.22407484041E+03  0.24196329049E+03  0.91305530175E+02 0.  0.
    9000005    2    3    3    0    0 -0.16110644890E+02  0.41482454285E+02 -0.11502911868E+03  0.12418673799E+03  0.14501753519E+02 0.  0.
         22    1    3    3    0    0  0.16110644890E+02 -0.41482454285E+02 -0.10904572173E+03  0.11777655251E+03  0.00000000000E+00 0. -1.
         22    1    4    4    0    0  0.33011729466E+00  0.82355009935E+01 -0.35348746163E+02  0.36296918730E+02  0.00000000000E+00 0. -1.
         22    1    4    4    0    0 -0.16440762185E+02  0.33246953292E+02 -0.79680372519E+02  0.87889819258E+02  0.00000000000E+00 0. -1.
<mgrwt>
<rscale>  0 0.91305530E+02</rscale>
<asrwt>0</asrwt>
<pdfrwt beam="2">  1        1 0.35849082E-01 0.91305530E+02</pdfrwt>
<pdfrwt beam="1">  1       -1 0.13760348E-02 0.91305530E+02</pdfrwt>
<totfact> 0.12152546E+05</totfact>
</mgrwt>
</event>
<event>
 7    1  0.3565607E-009  0.9242385E+02  0.7818608E-02  0.1297086E+00
          1   -1    0    0  501    0  0.00000000000E+00  0.00000000000E+00  0.34604249517E+03  0.34604249521E+03  0.50400000000E-02 0. -1.
         -1   -1    0    0    0  501 -0.00000000000E+00 -0.00000000000E+00 -0.61713272985E+01  0.61713293566E+01  0.50400000000E-02 0.  1.
         23    2    1    2    0    0 -0.17763568394E-14 -0.71054273576E-14  0.33987116787E+03  0.35221382457E+03  0.92423846832E+02 0.  0.
    9000005    2    3    3    0    0  0.10897070431E+02  0.38822411887E+02  0.25135088000E+03  0.25494220910E+03  0.13868644451E+02 0.  0.
         22    1    3    3    0    0 -0.10897070431E+02 -0.38822411887E+02  0.88520287877E+02  0.97271615462E+02  0.00000000000E+00 0.  1.
         22    1    4    4    0    0  0.62268156514E+01  0.30515056533E+02  0.15344920685E+03  0.15657777937E+03  0.00000000000E+00 0. -1.
         22    1    4    4    0    0  0.46702547796E+01  0.83073553545E+01  0.97901673145E+02  0.98364429736E+02  0.00000000000E+00 0. -1.
<mgrwt>
<rscale>  0 0.92423847E+02</rscale>
<asrwt>0</asrwt>
<pdfrwt beam="1">  1        1 0.53237294E-01 0.92423847E+02</pdfrwt>
<pdfrwt beam="2">  1       -1 0.94943537E-03 0.92423847E+02</pdfrwt>
<totfact> 0.12689029E+05</totfact>
</mgrwt>
</event>
<event>
 7    1  0.3565607E-009  0.9027844E+02  0.7818608E-02  0.1302179E+00
         -1   -1    0    0    0  501 -0.00000000000E+00  0.00000000000E+00  0.65246490091E+01  0.65246509557E+01  0.50400000000E-02 0.  1.
          1   -1    0    0  501    0  0.00000000000E+00 -0.00000000000E+00 -0.31228481198E+03  0.31228481202E+03  0.50400000000E-02 0. -1.
         23    2    1    2    0    0  0.00000000000E+00  0.00000000000E+00 -0.30576016297E+03  0.31880946297E+03  0.90278438307E+02 0.  0.
    9000005    2    3    3    0    0 -0.27920248184E+02  0.35359978130E+02 -0.16073497741E+03  0.16694711491E+03  0.23953920658E+01 0.  0.
         22    1    3    3    0    0  0.27920248184E+02 -0.35359978130E+02 -0.14502518556E+03  0.15186234806E+03  0.00000000000E+00 0.  1.
         22    1    4    4    0    0 -0.22721970575E+02  0.29812319475E+02 -0.13587634165E+03  0.14095191577E+03  0.00000000000E+00 0. -1.
         22    1    4    4    0    0 -0.51982776084E+01  0.55476586544E+01 -0.24858635765E+02  0.25995199148E+02  0.00000000000E+00 0. -1.
<mgrwt>
<rscale>  0 0.90278438E+02</rscale>
<asrwt>0</asrwt>
<pdfrwt beam="2">  1        1 0.48043806E-01 0.90278438E+02</pdfrwt>
<pdfrwt beam="1">  1       -1 0.10037925E-02 0.90278438E+02</pdfrwt>
<totfact> 0.13254624E+05</totfact>
</mgrwt>
</event>
<event>
 7    1  0.4462889E-009  0.9133479E+02  0.7818608E-02  0.1299651E+00
          1   -1    0    0  501    0  0.00000000000E+00  0.00000000000E+00  0.59028335201E+01  0.59028356717E+01  0.50400000000E-02 0. -1.
         -1   -1    0    0    0  501 -0.00000000000E+00 -0.00000000000E+00 -0.35330670065E+03  0.35330670068E+03  0.50400000000E-02 0.  1.
         23    2    1    2    0    0  0.00000000000E+00  0.00000000000E+00 -0.34740386713E+03  0.35920953636E+03  0.91334791364E+02 0.  0.
    9000005    2    3    3    0    0  0.10860824934E+02 -0.65131941924E+01 -0.34588493322E+03  0.34645467936E+03  0.15299627490E+02 0.  0.
         22    1    3    3    0    0 -0.10860824934E+02  0.65131941924E+01 -0.15189339053E+01  0.12754856998E+02  0.00000000000E+00 0. -1.
         22    1    4    4    0    0  0.11952055443E+02 -0.20506550823E+01 -0.14166573154E+03  0.14218381170E+03  0.00000000000E+00 0.  1.
         22    1    4    4    0    0 -0.10912305085E+01 -0.44625391101E+01 -0.20421920168E+03  0.20427086766E+03  0.00000000000E+00 0.  1.
<mgrwt>
<rscale>  0 0.91334791E+02</rscale>
<asrwt>0</asrwt>
<pdfrwt beam="1">  1        1 0.90812868E-03 0.91334791E+02</pdfrwt>
<pdfrwt beam="2">  1       -1 0.54354861E-01 0.91334791E+02</pdfrwt>
<totfact> 0.56291483E+04</totfact>
</mgrwt>
</event>
<event>
 7    1  0.3565607E-009  0.9131246E+02  0.7818608E-02  0.1299704E+00
         -1   -1    0    0    0  501 -0.00000000000E+00  0.00000000000E+00  0.10301664491E+02  0.10301665724E+02  0.50400000000E-02 0.  1.
          1   -1    0    0  501    0  0.00000000000E+00 -0.00000000000E+00 -0.20234507446E+03  0.20234507453E+03  0.50400000000E-02 0. -1.
         23    2    1    2    0    0 -0.35527136788E-14  0.35527136788E-14 -0.19204340997E+03  0.21264674025E+03  0.91312457119E+02 0.  0.
    9000005    2    3    3    0    0  0.28034117184E+02 -0.22896000508E+02 -0.34692987193E+02  0.51186856333E+02  0.10312726860E+02 0.  0.
         22    1    3    3    0    0 -0.28034117184E+02  0.22896000508E+02 -0.15735042278E+03  0.16145988392E+03  0.00000000000E+00 0. -1.
         22    1    4    4    0    0  0.21787256626E+02 -0.22581920073E+02 -0.28694099432E+02  0.42520336401E+02  0.00000000000E+00 0.  1.
         22    1    4    4    0    0  0.62468605587E+01 -0.31408043565E+00 -0.59988877603E+01  0.86665199314E+01  0.00000000000E+00 0.  1.
<mgrwt>
<rscale>  0 0.91312457E+02</rscale>
<asrwt>0</asrwt>
<pdfrwt beam="2">  1        1 0.31130009E-01 0.91312457E+02</pdfrwt>
<pdfrwt beam="1">  1       -1 0.15848717E-02 0.91312457E+02</pdfrwt>
<totfact> 0.11820174E+05</totfact>
</mgrwt>
</event>
<event>
 7    1  0.3565607E-009  0.9247692E+02  0.7818608E-02  0.1296962E+00
          1   -1    0    0  501    0  0.00000000000E+00  0.00000000000E+00  0.39698274358E+02  0.39698274678E+02  0.50400000000E-02 0.  1.
         -1   -1    0    0    0  501 -0.00000000000E+00 -0.00000000000E+00 -0.53856117734E+02  0.53856117970E+02  0.50400000000E-02 0. -1.
         23    2    1    2    0    0  0.00000000000E+00 -0.35527136788E-14 -0.14157843376E+02  0.93554392649E+02  0.92476915253E+02 0.  0.
    9000005    2    3    3    0    0  0.37221679214E+02 -0.21803050789E+02 -0.19738362877E+02  0.50057626963E+02  0.15979255953E+02 0.  0.
         22    1    3    3    0    0 -0.37221679214E+02  0.21803050789E+02  0.55805195016E+01  0.43496765686E+02  0.00000000000E+00 0.  1.
         22    1    4    4    0    0  0.26846388864E+02 -0.20757082323E+02 -0.20424169941E+02  0.39607218779E+02  0.00000000000E+00 0.  1.
         22    1    4    4    0    0  0.10375290350E+02 -0.10459684658E+01  0.68580706343E+00  0.10450408184E+02  0.00000000000E+00 0.  1.
<mgrwt>
<rscale>  0 0.92476915E+02</rscale>
<asrwt>0</asrwt>
<pdfrwt beam="1">  1        1 0.61074268E-02 0.92476915E+02</pdfrwt>
<pdfrwt beam="2">  1       -1 0.82855567E-02 0.92476915E+02</pdfrwt>
<totfact> 0.87000128E+04</totfact>
</mgrwt>
</event>
<event>
 7    1  0.3565607E-009  0.9178363E+02  0.7818608E-02  0.1298589E+00
         -1   -1    0    0    0  501 -0.00000000000E+00  0.00000000000E+00  0.15971494603E+03  0.15971494611E+03  0.50400000000E-02 0.  1.
          1   -1    0    0  501    0  0.00000000000E+00 -0.00000000000E+00 -0.13186357710E+02  0.13186358673E+02  0.50400000000E-02 0. -1.
         23    2    1    2    0    0  0.00000000000E+00  0.00000000000E+00  0.14652858832E+03  0.17290130478E+03  0.91783625992E+02 0.  0.
    9000005    2    3    3    0    0 -0.31020482558E+01  0.25227892917E+02  0.38603656816E+01  0.27986533157E+02  0.11057772402E+02 0.  0.
         22    1    3    3    0    0  0.31020482558E+01 -0.25227892917E+02  0.14266822264E+03  0.14491477162E+03  0.00000000000E+00 0.  1.
         22    1    4    4    0    0 -0.30180454821E+01  0.79760586867E+01 -0.35151893211E+01  0.92240265974E+01  0.00000000000E+00 0. -1.
         22    1    4    4    0    0 -0.84002773696E-01  0.17251834231E+02  0.73755550027E+01  0.18762506559E+02  0.00000000000E+00 0. -1.
<mgrwt>
<rscale>  0 0.91783626E+02</rscale>
<asrwt>0</asrwt>
<pdfrwt beam="2">  1        1 0.20286705E-02 0.91783626E+02</pdfrwt>
<pdfrwt beam="1">  1       -1 0.24571530E-01 0.91783626E+02</pdfrwt>
<totfact> 0.72415263E+04</totfact>
</mgrwt>
</event>
<event>
 7    1  0.3565607E-009  0.8642946E+02  0.7818608E-02  0.1311736E+00
         -1   -1    0    0    0  501 -0.00000000000E+00  0.00000000000E+00  0.81872899956E+02  0.81872900111E+02  0.50400000000E-02 0.  1.
          1   -1    0    0  501    0  0.00000000000E+00 -0.00000000000E+00 -0.22809900230E+02  0.22809900786E+02  0.50400000000E-02 0. -1.
         23    2    1    2    0    0  0.71054273576E-14  0.00000000000E+00  0.59062999726E+02  0.10468280090E+03  0.86429456015E+02 0.  0.
    9000005    2    3    3    0    0 -0.40467803869E+02  0.63420229724E+01  0.19093953777E+02  0.47451786233E+02  0.14464734376E+02 0.  0.
         22    1    3    3    0    0  0.40467803869E+02 -0.63420229724E+01  0.39969045949E+02  0.57231014664E+02  0.00000000000E+00 0.  1.
         22    1    4    4    0    0 -0.38474391497E+02  0.33219294003E+01  0.13738811904E+02  0.40988644385E+02  0.00000000000E+00 0.  1.
         22    1    4    4    0    0 -0.19934123717E+01  0.30200935721E+01  0.53551418730E+01  0.64631418480E+01  0.00000000000E+00 0.  1.
<mgrwt>
<rscale>  0 0.86429456E+02</rscale>
<asrwt>0</asrwt>
<pdfrwt beam="2">  1        1 0.35092156E-02 0.86429456E+02</pdfrwt>
<pdfrwt beam="1">  1       -1 0.12595830E-01 0.86429456E+02</pdfrwt>
<totfact> 0.96676335E+04</totfact>
</mgrwt>
</event>
<event>
 7    1  0.3565607E-009  0.9155470E+02  0.7818608E-02  0.1299130E+00
         -1   -1    0    0    0  501 -0.00000000000E+00  0.00000000000E+00  0.56025730965E+03  0.56025730967E+03  0.50400000000E-02 0. -1.
          1   -1    0    0  501    0  0.00000000000E+00 -0.00000000000E+00 -0.37403615848E+01  0.37403649804E+01  0.50400000000E-02 0.  1.
         23    2    1    2    0    0  0.00000000000E+00  0.00000000000E+00  0.55651694806E+03  0.56399767465E+03  0.91554702393E+02 0.  0.
    9000005    2    3    3    0    0  0.75264045265E+01  0.13161194990E+02  0.54382531653E+03  0.54422543831E+03  0.14334887364E+02 0.  0.
         22    1    3    3    0    0 -0.75264045265E+01 -0.13161194990E+02  0.12691631538E+02  0.19772236337E+02  0.00000000000E+00 0.  1.
         22    1    4    4    0    0  0.10869662032E+02  0.99956589806E+01  0.30656022887E+03  0.30691568334E+03  0.00000000000E+00 0. -1.
         22    1    4    4    0    0 -0.33432575057E+01  0.31655360094E+01  0.23726508765E+03  0.23730975498E+03  0.00000000000E+00 0. -1.
<mgrwt>
<rscale>  0 0.91554702E+02</rscale>
<asrwt>0</asrwt>
<pdfrwt beam="2">  1        1 0.57544049E-03 0.91554702E+02</pdfrwt>
<pdfrwt beam="1">  1       -1 0.86193435E-01 0.91554702E+02</pdfrwt>
<totfact> 0.43213961E+04</totfact>
</mgrwt>
</event>
<event>
 7    1  0.3753826E-009  0.9504642E+02  0.7818608E-02  0.1291072E+00
         -1   -1    0    0    0  501 -0.00000000000E+00  0.00000000000E+00  0.17101511924E+03  0.17101511932E+03  0.50400000000E-02 0.  1.
          1   -1    0    0  501    0  0.00000000000E+00 -0.00000000000E+00 -0.13206174002E+02  0.13206174963E+02  0.50400000000E-02 0. -1.
         23    2    1    2    0    0  0.00000000000E+00  0.00000000000E+00  0.15780894524E+03  0.18422129428E+03  0.95046420596E+02 0.  0.
    9000005    2    3    3    0    0  0.17878338498E+02  0.39556230432E+02  0.11357866152E+03  0.12224832960E+03  0.12657463559E+02 0.  0.
         22    1    3    3    0    0 -0.17878338498E+02 -0.39556230432E+02  0.44230283726E+02  0.61972964686E+02  0.00000000000E+00 0. -1.
         22    1    4    4    0    0  0.73078889306E+00  0.10154050046E+02  0.16633446851E+02  0.19501547090E+02  0.00000000000E+00 0.  1.
         22    1    4    4    0    0  0.17147549605E+02  0.29402180385E+02  0.96945214665E+02  0.10274678251E+03  0.00000000000E+00 0.  1.
<mgrwt>
<rscale>  0 0.95046421E+02</rscale>
<asrwt>0</asrwt>
<pdfrwt beam="2">  1        1 0.20317192E-02 0.95046421E+02</pdfrwt>
<pdfrwt beam="1">  1       -1 0.26310017E-01 0.95046421E+02</pdfrwt>
<totfact> 0.64995413E+04</totfact>
</mgrwt>
</event>
<event>
 7    1  0.3565607E-009  0.8912375E+02  0.7818608E-02  0.1304988E+00
          1   -1    0    0  501    0  0.00000000000E+00  0.00000000000E+00  0.58679881931E+01  0.58679903576E+01  0.50400000000E-02 0. -1.
         -1   -1    0    0    0  501 -0.00000000000E+00 -0.00000000000E+00 -0.33840565906E+03  0.33840565910E+03  0.50400000000E-02 0.  1.
         23    2    1    2    0    0  0.00000000000E+00 -0.71054273576E-14 -0.33253767087E+03  0.34427364946E+03  0.89123751961E+02 0.  0.
    9000005    2    3    3    0    0  0.55743912217E+01  0.41565618225E+02 -0.21872691633E+03  0.22298200793E+03  0.10988060646E+02 0.  0.
         22    1    3    3    0    0 -0.55743912217E+01 -0.41565618225E+02 -0.11381075454E+03  0.12129164153E+03  0.00000000000E+00 0. -1.
         22    1    4    4    0    0  0.68832372022E+01  0.31425406449E+02 -0.18360829283E+03  0.18640531194E+03  0.00000000000E+00 0.  1.
         22    1    4    4    0    0 -0.13088459806E+01  0.10140211776E+02 -0.35118623509E+02  0.36576695994E+02  0.00000000000E+00 0.  1.
<mgrwt>
<rscale>  0 0.89123752E+02</rscale>
<asrwt>0</asrwt>
<pdfrwt beam="1">  1        1 0.90276785E-03 0.89123752E+02</pdfrwt>
<pdfrwt beam="2">  1       -1 0.52062394E-01 0.89123752E+02</pdfrwt>
<totfact> 0.61173753E+04</totfact>
</mgrwt>
</event>
<event>
 7    1  0.3565607E-009  0.5471960E+02  0.7818608E-02  0.1421430E+00
         -1   -1    0    0    0  501 -0.00000000000E+00  0.00000000000E+00  0.42516490973E+02  0.42516491272E+02  0.50400000000E-02 0.  1.
          1   -1    0    0  501    0  0.00000000000E+00 -0.00000000000E+00 -0.17606311079E+02  0.17606311800E+02  0.50400000000E-02 0. -1.
         23    2    1    2    0    0  0.22204460493E-15 -0.35527136788E-14  0.24910179895E+02  0.60122803072E+02  0.54719597831E+02 0.  0.
    9000005    2    3    3    0    0  0.13165793451E+01 -0.17693651407E+02  0.35179287116E+02  0.39622723940E+02  0.41927710499E+01 0.  0.
         22    1    3    3    0    0 -0.13165793451E+01  0.17693651407E+02 -0.10269107222E+02  0.20500079132E+02  0.00000000000E+00 0. -1.
         22    1    4    4    0    0 -0.12448441378E+01 -0.22720273775E+01  0.54124099433E+01  0.60004938735E+01  0.00000000000E+00 0.  1.
         22    1    4    4    0    0  0.25614234830E+01 -0.15421624030E+02  0.29766877173E+02  0.33622230066E+02  0.00000000000E+00 0.  1.
<mgrwt>
<rscale>  0 0.54719598E+02</rscale>
<asrwt>0</asrwt>
<pdfrwt beam="2">  1        1 0.27086634E-02 0.54719598E+02</pdfrwt>
<pdfrwt beam="1">  1       -1 0.65409986E-02 0.54719598E+02</pdfrwt>
<totfact> 0.33310750E+05</totfact>
</mgrwt>
</event>
<event>
 7    1  0.3565607E-009  0.9302195E+02  0.7818608E-02  0.1295694E+00
          1   -1    0    0  501    0  0.00000000000E+00  0.00000000000E+00  0.56529635334E+02  0.56529635558E+02  0.50400000000E-02 0. -1.
         -1   -1    0    0    0  501 -0.00000000000E+00 -0.00000000000E+00 -0.38267907443E+02  0.38267907774E+02  0.50400000000E-02 0.  1.
         23    2    1    2    0    0  0.00000000000E+00  0.00000000000E+00  0.18261727891E+02  0.94797543333E+02  0.93021951798E+02 0.  0.
    9000005    2    3    3    0    0  0.22770590288E+02 -0.38039102729E+02  0.21612100516E+02  0.50337470062E+02  0.10065032787E+02 0.  0.
         22    1    3    3    0    0 -0.22770590288E+02  0.38039102729E+02 -0.33503726246E+01  0.44460073271E+02  0.00000000000E+00 0. -1.
         22    1    4    4    0    0 -0.10086070104E+01 -0.84416544059E+00  0.64019262891E+00  0.14627884312E+01  0.00000000000E+00 0. -1.
         22    1    4    4    0    0  0.23779197299E+02 -0.37194937289E+02  0.20971907887E+02  0.48874681631E+02  0.00000000000E+00 0. -1.
<mgrwt>
<rscale>  0 0.93021952E+02</rscale>
<asrwt>0</asrwt>
<pdfrwt beam="1">  1        1 0.86968669E-02 0.93021952E+02</pdfrwt>
<pdfrwt beam="2">  1       -1 0.58873705E-02 0.93021952E+02</pdfrwt>
<totfact> 0.90321276E+04</totfact>
</mgrwt>
</event>
<event>
 7    1  0.3565607E-009  0.8384277E+02  0.7818608E-02  0.1318487E+00
         -1   -1    0    0    0  501 -0.00000000000E+00  0.00000000000E+00  0.27627250222E+01  0.27627296194E+01  0.50400000000E-02 0.  1.
          1   -1    0    0  501    0  0.00000000000E+00 -0.00000000000E+00 -0.63611141586E+03  0.63611141588E+03  0.50400000000E-02 0. -1.
         23    2    1    2    0    0  0.00000000000E+00  0.00000000000E+00 -0.63334869083E+03  0.63887414550E+03  0.83842767139E+02 0.  0.
    9000005    2    3    3    0    0 -0.86663610359E+00 -0.21230448222E+02 -0.59016816233E+03  0.59074888153E+03  0.15306802760E+02 0.  0.
         22    1    3    3    0    0  0.86663610359E+00  0.21230448222E+02 -0.43180528499E+02  0.48125263961E+02  0.00000000000E+00 0.  1.
         22    1    4    4    0    0  0.21279170867E+00 -0.21827811603E+02 -0.41303553449E+03  0.41361195750E+03  0.00000000000E+00 0. -1.
         22    1    4    4    0    0 -0.10794278123E+01  0.59736338091E+00 -0.17713262785E+03  0.17713692403E+03  0.00000000000E+00 0. -1.
<mgrwt>
<rscale>  0 0.83842767E+02</rscale>
<asrwt>0</asrwt>
<pdfrwt beam="2">  1        1 0.97863179E-01 0.83842767E+02</pdfrwt>
<pdfrwt beam="1">  1       -1 0.42503548E-03 0.83842767E+02</pdfrwt>
<totfact> 0.17709246E+05</totfact>
</mgrwt>
</event>
<event>
 7    1  0.3565607E-009  0.9006443E+02  0.7818608E-02  0.1302696E+00
         -1   -1    0    0    0  501 -0.00000000000E+00  0.00000000000E+00  0.23049012411E+02  0.23049012962E+02  0.50400000000E-02 0.  1.
          1   -1    0    0  501    0  0.00000000000E+00 -0.00000000000E+00 -0.87982100647E+02  0.87982100792E+02  0.50400000000E-02 0. -1.
         23    2    1    2    0    0  0.00000000000E+00  0.17763568394E-14 -0.64933088236E+02  0.11103111375E+03  0.90064434010E+02 0.  0.
    9000005    2    3    3    0    0 -0.18169950365E+02 -0.15990153122E+02  0.11762197660E+02  0.30607243095E+02  0.14581561747E+02 0.  0.
         22    1    3    3    0    0  0.18169950365E+02  0.15990153122E+02 -0.76695285896E+02  0.80423870659E+02  0.00000000000E+00 0. -1.
         22    1    4    4    0    0 -0.19832334958E+02 -0.14892993918E+02  0.75134025579E+01  0.25914744755E+02  0.00000000000E+00 0.  1.
         22    1    4    4    0    0  0.16623845933E+01 -0.10971592038E+01  0.42487951018E+01  0.46924983401E+01  0.00000000000E+00 0.  1.
<mgrwt>
<rscale>  0 0.90064434E+02</rscale>
<asrwt>0</asrwt>
<pdfrwt beam="2">  1        1 0.13535708E-01 0.90064434E+02</pdfrwt>
<pdfrwt beam="1">  1       -1 0.35460020E-02 0.90064434E+02</pdfrwt>
<totfact> 0.10577332E+05</totfact>
</mgrwt>
</event>
<event>
 7    1  0.3565607E-009  0.9594178E+02  0.7818608E-02  0.1289069E+00
         -1   -1    0    0    0  501 -0.00000000000E+00  0.00000000000E+00  0.19738859398E+02  0.19738860041E+02  0.50400000000E-02 0.  1.
          1   -1    0    0  501    0  0.00000000000E+00 -0.00000000000E+00 -0.11658252963E+03  0.11658252974E+03  0.50400000000E-02 0. -1.
         23    2    1    2    0    0  0.00000000000E+00 -0.22204460493E-15 -0.96843670229E+02  0.13632138978E+03  0.95941778424E+02 0.  0.
    9000005    2    3    3    0    0 -0.35681835912E+02  0.18333116179E+01 -0.44776203061E+01  0.37285832405E+02  0.96762476718E+01 0.  0.
         22    1    3    3    0    0  0.35681835912E+02 -0.18333116179E+01 -0.92366049923E+02  0.99035557371E+02  0.00000000000E+00 0. -1.
         22    1    4    4    0    0 -0.28418533033E+01 -0.18881625574E+01 -0.23979273571E+01  0.41702929934E+01  0.00000000000E+00 0.  1.
         22    1    4    4    0    0 -0.32839982608E+02  0.37214741754E+01 -0.20796929490E+01  0.33115539412E+02  0.00000000000E+00 0.  1.
<mgrwt>
<rscale>  0 0.95941778E+02</rscale>
<asrwt>0</asrwt>
<pdfrwt beam="2">  1        1 0.17935773E-01 0.95941778E+02</pdfrwt>
<pdfrwt beam="1">  1       -1 0.30367477E-02 0.95941778E+02</pdfrwt>
<totfact> 0.93306433E+04</totfact>
</mgrwt>
</event>
<event>
 7    1  0.3565607E-009  0.8202234E+02  0.7818608E-02  0.1323408E+00
          1   -1    0    0  501    0  0.00000000000E+00  0.00000000000E+00  0.21120286749E+03  0.21120286755E+03  0.50400000000E-02 0. -1.
         -1   -1    0    0    0  501 -0.00000000000E+00 -0.00000000000E+00 -0.79635097037E+01  0.79635112986E+01  0.50400000000E-02 0.  1.
         23    2    1    2    0    0  0.00000000000E+00  0.00000000000E+00  0.20323935779E+03  0.21916637885E+03  0.82022344909E+02 0.  0.
    9000005    2    3    3    0    0  0.32283824228E+02  0.10615417515E+02  0.16275570738E+03  0.16630941767E+03  0.38039087952E+01 0.  0.
         22    1    3    3    0    0 -0.32283824228E+02 -0.10615417515E+02  0.40483650406E+02  0.52856961188E+02  0.00000000000E+00 0.  1.
         22    1    4    4    0    0  0.14443126697E+02  0.41646652001E+01  0.63273579181E+02  0.65034561330E+02  0.00000000000E+00 0.  1.
         22    1    4    4    0    0  0.17840697531E+02  0.64507523147E+01  0.99482128204E+02  0.10127485634E+03  0.00000000000E+00 0.  1.
<mgrwt>
<rscale>  0 0.82022345E+02</rscale>
<asrwt>0</asrwt>
<pdfrwt beam="1">  1        1 0.32492753E-01 0.82022345E+02</pdfrwt>
<pdfrwt beam="2">  1       -1 0.12251553E-02 0.82022345E+02</pdfrwt>
<totfact> 0.15860587E+05</totfact>
</mgrwt>
</event>
<event>
 7    1  0.3565607E-009  0.9061219E+02  0.7818608E-02  0.1301376E+00
          1   -1    0    0  501    0  0.00000000000E+00  0.00000000000E+00  0.14521837787E+03  0.14521837795E+03  0.50400000000E-02 0. -1.
         -1   -1    0    0    0  501 -0.00000000000E+00 -0.00000000000E+00 -0.14134863872E+02  0.14134864771E+02  0.50400000000E-02 0.  1.
         23    2    1    2    0    0  0.00000000000E+00  0.71054273576E-14  0.13108351400E+03  0.15935324273E+03  0.90612186409E+02 0.  0.
    9000005    2    3    3    0    0  0.19854726032E+02  0.40281346639E+02  0.74982546397E+02  0.87491461518E+02  0.39467127610E+01 0.  0.
         22    1    3    3    0    0 -0.19854726032E+02 -0.40281346639E+02  0.56100967598E+02  0.71861781207E+02  0.00000000000E+00 0. -1.
         22    1    4    4    0    0  0.72368855279E+01  0.17139445651E+02  0.34188589097E+02  0.38922907572E+02  0.00000000000E+00 0.  1.
         22    1    4    4    0    0  0.12617840504E+02  0.23141900987E+02  0.40793957300E+02  0.48568553947E+02  0.00000000000E+00 0.  1.
<mgrwt>
<rscale>  0 0.90612186E+02</rscale>
<asrwt>0</asrwt>
<pdfrwt beam="1">  1        1 0.22341289E-01 0.90612186E+02</pdfrwt>
<pdfrwt beam="2">  1       -1 0.21745945E-02 0.90612186E+02</pdfrwt>
<totfact> 0.11335289E+05</totfact>
</mgrwt>
</event>
<event>
 7    1  0.3565607E-009  0.9055830E+02  0.7818608E-02  0.1301505E+00
         -1   -1    0    0    0  501 -0.00000000000E+00  0.00000000000E+00  0.35784271321E+03  0.35784271324E+03  0.50400000000E-02 0.  1.
          1   -1    0    0  501    0  0.00000000000E+00 -0.00000000000E+00 -0.57293354184E+01  0.57293376352E+01  0.50400000000E-02 0. -1.
         23    2    1    2    0    0  0.00000000000E+00  0.00000000000E+00  0.35211337779E+03  0.36357205088E+03  0.90558298139E+02 0.  0.
    9000005    2    3    3    0    0  0.41402894566E+02  0.13504882742E+02  0.14646460359E+03  0.15336263181E+03  0.13100961568E+02 0.  0.
         22    1    3    3    0    0 -0.41402894566E+02 -0.13504882742E+02  0.20564877420E+03  0.21020941907E+03  0.00000000000E+00 0.  1.
         22    1    4    4    0    0  0.79430655959E+01  0.14578811527E+01  0.47959465353E+02  0.48634638124E+02  0.00000000000E+00 0. -1.
         22    1    4    4    0    0  0.33459828970E+02  0.12047001589E+02  0.98505138239E+02  0.10472799369E+03  0.00000000000E+00 0. -1.
<mgrwt>
<rscale>  0 0.90558298E+02</rscale>
<asrwt>0</asrwt>
<pdfrwt beam="2">  1        1 0.88143617E-03 0.90558298E+02</pdfrwt>
<pdfrwt beam="1">  1       -1 0.55052739E-01 0.90558298E+02</pdfrwt>
<totfact> 0.57230983E+04</totfact>
</mgrwt>
</event>
<event>
 7    1  0.3565607E-009  0.9252439E+02  0.7818608E-02  0.1296851E+00
          1   -1    0    0  501    0  0.00000000000E+00  0.00000000000E+00  0.27765278858E+03  0.27765278863E+03  0.50400000000E-02 0. -1.
         -1   -1    0    0    0  501 -0.00000000000E+00 -0.00000000000E+00 -0.77081546337E+01  0.77081562814E+01  0.50400000000E-02 0.  1.
         23    2    1    2    0    0  0.00000000000E+00  0.00000000000E+00  0.26994463395E+03  0.28536094491E+03  0.92524393983E+02 0.  0.
    9000005    2    3    3    0    0  0.36204306351E+02 -0.16616780653E+02  0.20410512426E+03  0.20840829561E+03  0.13720303708E+02 0.  0.
         22    1    3    3    0    0 -0.36204306351E+02  0.16616780653E+02  0.65839509690E+02  0.76952649297E+02  0.00000000000E+00 0.  1.
         22    1    4    4    0    0  0.28962095228E+02 -0.95481384888E+01  0.17388105502E+03  0.17653495745E+03  0.00000000000E+00 0.  1.
         22    1    4    4    0    0  0.72422111232E+01 -0.70686421642E+01  0.30224069242E+02  0.31873338161E+02  0.00000000000E+00 0.  1.
<mgrwt>
<rscale>  0 0.92524394E+02</rscale>
<asrwt>0</asrwt>
<pdfrwt beam="1">  1        1 0.42715818E-01 0.92524394E+02</pdfrwt>
<pdfrwt beam="2">  1       -1 0.11858700E-02 0.92524394E+02</pdfrwt>
<totfact> 0.12137577E+05</totfact>
</mgrwt>
</event>
<event>
 7    1  0.3565607E-009  0.1207712E+03  0.7818608E-02  0.1241830E+00
         -1   -1    0    0    0  501 -0.00000000000E+00  0.00000000000E+00  0.34742606218E+02  0.34742606583E+02  0.50400000000E-02 0.  1.
          1   -1    0    0  501    0  0.00000000000E+00 -0.00000000000E+00 -0.10495533407E+03  0.10495533419E+03  0.50400000000E-02 0. -1.
         23    2    1    2    0    0  0.00000000000E+00  0.00000000000E+00 -0.70212727853E+02  0.13969794078E+03  0.12077121969E+03 0.  0.
    9000005    2    3    3    0    0 -0.27067538798E+02  0.43896185245E+02  0.96651511546E+00  0.51800208351E+02  0.47750076554E+01 0.  0.
         22    1    3    3    0    0  0.27067538798E+02 -0.43896185245E+02 -0.71179242968E+02  0.87897732424E+02  0.00000000000E+00 0. -1.
         22    1    4    4    0    0 -0.23567131356E+02  0.37014285448E+02  0.24065867737E+01  0.43946088193E+02  0.00000000000E+00 0.  1.
         22    1    4    4    0    0 -0.35004074420E+01  0.68818997972E+01 -0.14400716582E+01  0.78541201582E+01  0.00000000000E+00 0.  1.
<mgrwt>
<rscale>  0 0.12077122E+03</rscale>
<asrwt>0</asrwt>
<pdfrwt beam="2">  1        1 0.16146974E-01 0.12077122E+03</pdfrwt>
<pdfrwt beam="1">  1       -1 0.53450164E-02 0.12077122E+03</pdfrwt>
<totfact> 0.48260846E+04</totfact>
</mgrwt>
</event>
<event>
 7    1  0.3565607E-009  0.9255838E+02  0.7818608E-02  0.1296772E+00
          1   -1    0    0  501    0  0.00000000000E+00  0.00000000000E+00  0.22987077923E+02  0.22987078475E+02  0.50400000000E-02 0. -1.
         -1   -1    0    0    0  501 -0.00000000000E+00 -0.00000000000E+00 -0.93172502754E+02  0.93172502891E+02  0.50400000000E-02 0.  1.
         23    2    1    2    0    0  0.00000000000E+00  0.00000000000E+00 -0.70185424832E+02  0.11615958137E+03  0.92558384192E+02 0.  0.
    9000005    2    3    3    0    0  0.22530040445E+02 -0.35203548037E+02 -0.12326339606E+02  0.44783351008E+02  0.10330409604E+02 0.  0.
         22    1    3    3    0    0 -0.22530040445E+02  0.35203548037E+02 -0.57859085226E+02  0.71376230358E+02  0.00000000000E+00 0.  1.
         22    1    4    4    0    0  0.10739922842E+02 -0.18993527341E+02 -0.11874404685E+01  0.21852003075E+02  0.00000000000E+00 0.  1.
         22    1    4    4    0    0  0.11790117602E+02 -0.16210020696E+02 -0.11138899137E+02  0.22931347933E+02  0.00000000000E+00 0.  1.
<mgrwt>
<rscale>  0 0.92558384E+02</rscale>
<asrwt>0</asrwt>
<pdfrwt beam="1">  1        1 0.35364736E-02 0.92558384E+02</pdfrwt>
<pdfrwt beam="2">  1       -1 0.14334231E-01 0.92558384E+02</pdfrwt>
<totfact> 0.79300609E+04</totfact>
</mgrwt>
</event>
<event>
 7    1  0.3565607E-009  0.8956866E+02  0.7818608E-02  0.1303900E+00
         -1   -1    0    0    0  501 -0.00000000000E+00  0.00000000000E+00  0.16809984077E+02  0.16809984833E+02  0.50400000000E-02 0.  1.
          1   -1    0    0  501    0  0.00000000000E+00 -0.00000000000E+00 -0.11931219941E+03  0.11931219952E+03  0.50400000000E-02 0. -1.
         23    2    1    2    0    0  0.00000000000E+00  0.00000000000E+00 -0.10250221533E+03  0.13612218435E+03  0.89568660389E+02 0.  0.
    9000005    2    3    3    0    0 -0.25444016023E+02  0.34087925634E+02 -0.70406575680E+02  0.82835087318E+02  0.97560835632E+01 0.  0.
         22    1    3    3    0    0  0.25444016023E+02 -0.34087925634E+02 -0.32095639652E+02  0.53287097031E+02  0.00000000000E+00 0.  1.
         22    1    4    4    0    0 -0.29999282631E+01  0.10815572395E+02 -0.15939279461E+02  0.19494532709E+02  0.00000000000E+00 0. -1.
         22    1    4    4    0    0 -0.22444087760E+02  0.23272353238E+02 -0.54467296220E+02  0.63340554608E+02  0.00000000000E+00 0. -1.
<mgrwt>
<rscale>  0 0.89568660E+02</rscale>
<asrwt>0</asrwt>
<pdfrwt beam="2">  1        1 0.18355723E-01 0.89568660E+02</pdfrwt>
<pdfrwt beam="1">  1       -1 0.25861515E-02 0.89568660E+02</pdfrwt>
<totfact> 0.11294409E+05</totfact>
</mgrwt>
</event>
<event>
 7    1  0.3565607E-009  0.8806486E+02  0.7818608E-02  0.1307607E+00
          1   -1    0    0  501    0  0.00000000000E+00  0.00000000000E+00  0.95187454801E+02  0.95187454935E+02  0.50400000000E-02 0. -1.
         -1   -1    0    0    0  501 -0.00000000000E+00 -0.00000000000E+00 -0.20368807315E+02  0.20368807938E+02  0.50400000000E-02 0.  1.
         23    2    1    2    0    0  0.35527136788E-14  0.00000000000E+00  0.74818647486E+02  0.11555626287E+03  0.88064861764E+02 0.  0.
    9000005    2    3    3    0    0 -0.26040698803E+02 -0.11781197145E+02 -0.41018445191E+01  0.31619628090E+02  0.12886471658E+02 0.  0.
         22    1    3    3    0    0  0.26040698803E+02  0.11781197145E+02  0.78920492006E+02  0.83936634783E+02  0.00000000000E+00 0. -1.
         22    1    4    4    0    0 -0.11086923443E+02  0.14994840681E+01 -0.30310510923E+01  0.11591186075E+02  0.00000000000E+00 0.  1.
         22    1    4    4    0    0 -0.14953775360E+02 -0.13280681213E+02 -0.10707934269E+01  0.20028442015E+02  0.00000000000E+00 0.  1.
<mgrwt>
<rscale>  0 0.88064862E+02</rscale>
<asrwt>0</asrwt>
<pdfrwt beam="1">  1        1 0.14644224E-01 0.88064862E+02</pdfrwt>
<pdfrwt beam="2">  1       -1 0.31336627E-02 0.88064862E+02</pdfrwt>
<totfact> 0.11387330E+05</totfact>
</mgrwt>
</event>
<event>
 7    1  0.3565607E-009  0.8776357E+02  0.7818608E-02  0.1308360E+00
          1   -1    0    0  501    0  0.00000000000E+00  0.00000000000E+00  0.88381677135E+01  0.88381691505E+01  0.50400000000E-02 0. -1.
         -1   -1    0    0    0  501 -0.00000000000E+00 -0.00000000000E+00 -0.21787442698E+03  0.21787442704E+03  0.50400000000E-02 0.  1.
         23    2    1    2    0    0 -0.88817841970E-15  0.00000000000E+00 -0.20903625927E+03  0.22671259619E+03  0.87763566374E+02 0.  0.
    9000005    2    3    3    0    0  0.19077582045E+01 -0.32939026617E+02 -0.17850390590E+03  0.18175880193E+03  0.91650774082E+01 0.  0.
         22    1    3    3    0    0 -0.19077582045E+01  0.32939026617E+02 -0.30532353376E+02  0.44953794262E+02  0.00000000000E+00 0. -1.
         22    1    4    4    0    0 -0.30613268975E+01 -0.13291075250E+02 -0.84642393470E+02  0.85734235729E+02  0.00000000000E+00 0. -1.
         22    1    4    4    0    0  0.49690851020E+01 -0.19647951367E+02 -0.93861512425E+02  0.96024566202E+02  0.00000000000E+00 0. -1.
<mgrwt>
<rscale>  0 0.87763566E+02</rscale>
<asrwt>0</asrwt>
<pdfrwt beam="1">  1        1 0.13597184E-02 0.87763566E+02</pdfrwt>
<pdfrwt beam="2">  1       -1 0.33519139E-01 0.87763566E+02</pdfrwt>
<totfact> 0.74760111E+04</totfact>
</mgrwt>
</event>
<event>
 7    1  0.4081241E-009  0.1218701E+03  0.7818608E-02  0.1240043E+00
          1   -1    0    0  501    0  0.00000000000E+00  0.00000000000E+00  0.60271693614E+03  0.60271693616E+03  0.50400000000E-02 0. -1.
         -1   -1    0    0    0  501 -0.00000000000E+00 -0.00000000000E+00 -0.61605685763E+01  0.61605706379E+01  0.50400000000E-02 0.  1.
         23    2    1    2    0    0  0.00000000000E+00  0.00000000000E+00  0.59655636756E+03  0.60887750680E+03  0.12187008905E+03 0.  0.
    9000005    2    3    3    0    0  0.43611825832E+02  0.81178313211E+00  0.50929420363E+03  0.51132067414E+03  0.12868395670E+02 0.  0.
         22    1    3    3    0    0 -0.43611825832E+02 -0.81178313211E+00  0.87262163937E+02  0.97556832662E+02  0.00000000000E+00 0.  1.
         22    1    4    4    0    0  0.40423844977E+02  0.14742240308E+01  0.41414621345E+03  0.41611698679E+03  0.00000000000E+00 0. -1.
         22    1    4    4    0    0  0.31879808542E+01 -0.66244089873E+00  0.95147990176E+02  0.95203687346E+02  0.00000000000E+00 0. -1.
<mgrwt>
<rscale>  0 0.12187009E+03</rscale>
<asrwt>0</asrwt>
<pdfrwt beam="1">  1        1 0.92725706E-01 0.12187009E+03</pdfrwt>
<pdfrwt beam="2">  1       -1 0.94777970E-03 0.12187009E+03</pdfrwt>
<totfact> 0.64995842E+04</totfact>
</mgrwt>
</event>
<event>
 7    1  0.3565607E-009  0.8741923E+02  0.7818608E-02  0.1309225E+00
         -1   -1    0    0    0  501 -0.00000000000E+00  0.00000000000E+00  0.18256033140E+03  0.18256033147E+03  0.50400000000E-02 0.  1.
          1   -1    0    0  501    0  0.00000000000E+00 -0.00000000000E+00 -0.10465199999E+02  0.10465201213E+02  0.50400000000E-02 0. -1.
         23    2    1    2    0    0  0.88817841970E-15  0.71054273576E-14  0.17209513140E+03  0.19302553268E+03  0.87419231382E+02 0.  0.
    9000005    2    3    3    0    0 -0.78286582370E+01 -0.27920444529E+02  0.15821655664E+03  0.16087815410E+03  0.29090474592E+01 0.  0.
         22    1    3    3    0    0  0.78286582370E+01  0.27920444529E+02  0.13878574755E+02  0.32147378583E+02  0.00000000000E+00 0. -1.
         22    1    4    4    0    0 -0.56691252480E+01 -0.18496737092E+02  0.11238846463E+03  0.11404137515E+03  0.00000000000E+00 0.  1.
         22    1    4    4    0    0 -0.21595329890E+01 -0.94237074370E+01  0.45828092011E+02  0.46836778945E+02  0.00000000000E+00 0.  1.
<mgrwt>
<rscale>  0 0.87419231E+02</rscale>
<asrwt>0</asrwt>
<pdfrwt beam="2">  1        1 0.16100310E-02 0.87419231E+02</pdfrwt>
<pdfrwt beam="1">  1       -1 0.28086202E-01 0.87419231E+02</pdfrwt>
<totfact> 0.79425643E+04</totfact>
</mgrwt>
</event>
<event>
 7    1  0.3565607E-009  0.9251973E+02  0.7818608E-02  0.1296862E+00
          1   -1    0    0  501    0  0.00000000000E+00  0.00000000000E+00  0.58685772399E+01  0.58685794041E+01  0.50400000000E-02 0. -1.
         -1   -1    0    0    0  501 -0.00000000000E+00 -0.00000000000E+00 -0.36464966045E+03  0.36464966049E+03  0.50400000000E-02 0.  1.
         23    2    1    2    0    0  0.00000000000E+00  0.17763568394E-14 -0.35878108321E+03  0.37051823989E+03  0.92519729901E+02 0.  0.
    9000005    2    3    3    0    0 -0.42019609725E+02 -0.15659079941E+02 -0.16770076990E+03  0.17424664102E+03  0.15082748333E+02 0.  0.
         22    1    3    3    0    0  0.42019609725E+02  0.15659079941E+02 -0.19108031332E+03  0.19627159887E+03  0.00000000000E+00 0.  1.
         22    1    4    4    0    0 -0.25393920912E+02 -0.10291488519E+02 -0.12754539784E+03  0.13045533513E+03  0.00000000000E+00 0. -1.
         22    1    4    4    0    0 -0.16625688813E+02 -0.53675914228E+01 -0.40155372060E+02  0.43791305889E+02  0.00000000000E+00 0. -1.
<mgrwt>
<rscale>  0 0.92519730E+02</rscale>
<asrwt>0</asrwt>
<pdfrwt beam="1">  1        1 0.90285849E-03 0.92519730E+02</pdfrwt>
<pdfrwt beam="2">  1       -1 0.56099930E-01 0.92519730E+02</pdfrwt>
<totfact> 0.53639201E+04</totfact>
</mgrwt>
</event>
<event>
 7    1  0.3565607E-009  0.9254825E+02  0.7818608E-02  0.1296795E+00
          1   -1    0    0  501    0  0.00000000000E+00  0.00000000000E+00  0.21024414255E+02  0.21024414859E+02  0.50400000000E-02 0. -1.
         -1   -1    0    0    0  501 -0.00000000000E+00 -0.00000000000E+00 -0.10184799411E+03  0.10184799424E+03  0.50400000000E-02 0.  1.
         23    2    1    2    0    0  0.00000000000E+00  0.17763568394E-14 -0.80823579859E+02  0.12287240910E+03  0.92548246100E+02 0.  0.
    9000005    2    3    3    0    0  0.41901590120E+02 -0.81871888822E+01 -0.60900908252E+02  0.75758863695E+02  0.14412199212E+02 0.  0.
         22    1    3    3    0    0 -0.41901590120E+02  0.81871888822E+01 -0.19922671607E+02  0.47113545402E+02  0.00000000000E+00 0. -1.
         22    1    4    4    0    0  0.41308893979E+02 -0.75487781905E+01 -0.61661373808E+02  0.74602505279E+02  0.00000000000E+00 0. -1.
         22    1    4    4    0    0  0.59269614036E+00 -0.63841069170E+00  0.76046555585E+00  0.11563584166E+01  0.00000000000E+00 0. -1.
<mgrwt>
<rscale>  0 0.92548246E+02</rscale>
<asrwt>0</asrwt>
<pdfrwt beam="1">  1        1 0.32345254E-02 0.92548246E+02</pdfrwt>
<pdfrwt beam="2">  1       -1 0.15668922E-01 0.92548246E+02</pdfrwt>
<totfact> 0.78029283E+04</totfact>
</mgrwt>
</event>
<event>
 7    1  0.3565607E-009  0.9077563E+02  0.7818608E-02  0.1300984E+00
         -1   -1    0    0    0  501 -0.00000000000E+00  0.00000000000E+00  0.46111186357E+01  0.46111213900E+01  0.50400000000E-02 0.  1.
          1   -1    0    0  501    0  0.00000000000E+00 -0.00000000000E+00 -0.44675773080E+03  0.44675773083E+03  0.50400000000E-02 0. -1.
         23    2    1    2    0    0  0.35527136788E-14  0.00000000000E+00 -0.44214661217E+03  0.45136885222E+03  0.90775625058E+02 0.  0.
    9000005    2    3    3    0    0  0.29826650201E+02  0.31719882153E+02 -0.27443601873E+03  0.27809847640E+03  0.11307263767E+02 0.  0.
         22    1    3    3    0    0 -0.29826650201E+02 -0.31719882153E+02 -0.16771059344E+03  0.17327037582E+03  0.00000000000E+00 0.  1.
         22    1    4    4    0    0  0.12273556721E+01  0.65213797564E+01 -0.31607428027E+02  0.32296506040E+02  0.00000000000E+00 0. -1.
         22    1    4    4    0    0  0.28599294529E+02  0.25198502397E+02 -0.24282859070E+03  0.24580197036E+03  0.00000000000E+00 0. -1.
<mgrwt>
<rscale>  0 0.90775625E+02</rscale>
<asrwt>0</asrwt>
<pdfrwt beam="2">  1        1 0.68731925E-01 0.90775625E+02</pdfrwt>
<pdfrwt beam="1">  1       -1 0.70940343E-03 0.90775625E+02</pdfrwt>
<totfact> 0.13882895E+05</totfact>
</mgrwt>
</event>
<event>
 7    1  0.3565607E-009  0.8813439E+02  0.7818608E-02  0.1307433E+00
         -1   -1    0    0    0  501 -0.00000000000E+00  0.00000000000E+00  0.13506096091E+02  0.13506097031E+02  0.50400000000E-02 0.  1.
          1   -1    0    0  501    0  0.00000000000E+00 -0.00000000000E+00 -0.14378082014E+03  0.14378082023E+03  0.50400000000E-02 0. -1.
         23    2    1    2    0    0  0.22204460493E-15  0.00000000000E+00 -0.13027472405E+03  0.15728691726E+03  0.88134389514E+02 0.  0.
    9000005    2    3    3    0    0  0.10472685780E+01  0.24798960373E+02 -0.33121975440E+01  0.27920892571E+02  0.12349914264E+02 0.  0.
         22    1    3    3    0    0 -0.10472685780E+01 -0.24798960373E+02 -0.12696252651E+03  0.12936602469E+03  0.00000000000E+00 0. -1.
         22    1    4    4    0    0 -0.55626010004E+01  0.13186998657E+02 -0.87450928725E+00  0.14338906163E+02  0.00000000000E+00 0.  1.
         22    1    4    4    0    0  0.66098695784E+01  0.11611961716E+02 -0.24376882567E+01  0.13581986408E+02  0.00000000000E+00 0.  1.
<mgrwt>
<rscale>  0 0.88134390E+02</rscale>
<asrwt>0</asrwt>
<pdfrwt beam="2">  1        1 0.22120125E-01 0.88134390E+02</pdfrwt>
<pdfrwt beam="1">  1       -1 0.20778611E-02 0.88134390E+02</pdfrwt>
<totfact> 0.12191546E+05</totfact>
</mgrwt>
</event>
<event>
 7    1  0.3565607E-009  0.9092016E+02  0.7818608E-02  0.1300639E+00
         -1   -1    0    0    0  501 -0.00000000000E+00  0.00000000000E+00  0.34240049307E+02  0.34240049678E+02  0.50400000000E-02 0.  1.
          1   -1    0    0  501    0  0.00000000000E+00 -0.00000000000E+00 -0.60356772704E+02  0.60356772914E+02  0.50400000000E-02 0. -1.
         23    2    1    2    0    0  0.00000000000E+00  0.00000000000E+00 -0.26116723397E+02  0.94596822593E+02  0.90920160601E+02 0.  0.
    9000005    2    3    3    0    0  0.37401785437E+01 -0.29939485610E+02 -0.47261494107E+02  0.57753057007E+02  0.13834920826E+02 0.  0.
         22    1    3    3    0    0 -0.37401785437E+01  0.29939485610E+02  0.21144770710E+02  0.36843765586E+02  0.00000000000E+00 0.  1.
         22    1    4    4    0    0  0.62765408193E+01 -0.77481934737E+01 -0.21212394702E+02  0.23439179929E+02  0.00000000000E+00 0. -1.
         22    1    4    4    0    0 -0.25363622756E+01 -0.22191292137E+02 -0.26049099405E+02  0.34313877078E+02  0.00000000000E+00 0. -1.
<mgrwt>
<rscale>  0 0.90920161E+02</rscale>
<asrwt>0</asrwt>
<pdfrwt beam="2">  1        1 0.92856574E-02 0.90920161E+02</pdfrwt>
<pdfrwt beam="1">  1       -1 0.52676999E-02 0.90920161E+02</pdfrwt>
<totfact> 0.97214798E+04</totfact>
</mgrwt>
</event>
<event>
 7    1  0.3565607E-009  0.8866458E+02  0.7818608E-02  0.1306118E+00
         -1   -1    0    0    0  501 -0.00000000000E+00  0.00000000000E+00  0.38688756211E+02  0.38688756539E+02  0.50400000000E-02 0.  1.
          1   -1    0    0  501    0  0.00000000000E+00 -0.00000000000E+00 -0.50799050319E+02  0.50799050569E+02  0.50400000000E-02 0. -1.
         23    2    1    2    0    0  0.17763568394E-14  0.00000000000E+00 -0.12110294108E+02  0.89487807108E+02  0.88664583671E+02 0.  0.
    9000005    2    3    3    0    0 -0.12226543952E+02 -0.14307617569E+02  0.33809775309E+02  0.39860706923E+02  0.95696788024E+01 0.  0.
         22    1    3    3    0    0  0.12226543952E+02  0.14307617569E+02 -0.45920069417E+02  0.49627100185E+02  0.00000000000E+00 0. -1.
         22    1    4    4    0    0 -0.58410928934E+01 -0.63940944135E+01  0.68339698601E+01  0.11032042132E+02  0.00000000000E+00 0.  1.
         22    1    4    4    0    0 -0.63854510588E+01 -0.79135231555E+01  0.26975805449E+02  0.28828664790E+02  0.00000000000E+00 0.  1.
<mgrwt>
<rscale>  0 0.88664584E+02</rscale>
<asrwt>0</asrwt>
<pdfrwt beam="2">  1        1 0.78152386E-02 0.88664584E+02</pdfrwt>
<pdfrwt beam="1">  1       -1 0.59521164E-02 0.88664584E+02</pdfrwt>
<totfact> 0.10159159E+05</totfact>
</mgrwt>
</event>
<event>
 7    1  0.3565607E-009  0.9256256E+02  0.7818608E-02  0.1296762E+00
          1   -1    0    0  501    0  0.00000000000E+00  0.00000000000E+00  0.13616723127E+03  0.13616723136E+03  0.50400000000E-02 0. -1.
         -1   -1    0    0    0  501 -0.00000000000E+00 -0.00000000000E+00 -0.15730339188E+02  0.15730339995E+02  0.50400000000E-02 0.  1.
         23    2    1    2    0    0  0.00000000000E+00  0.00000000000E+00  0.12043689208E+03  0.15189757136E+03  0.92562558360E+02 0.  0.
    9000005    2    3    3    0    0 -0.78774106354E+01 -0.28808904475E+02  0.32376738060E+01  0.30952694080E+02  0.74552105122E+01 0.  0.
         22    1    3    3    0    0  0.78774106354E+01  0.28808904475E+02  0.11719921828E+03  0.12094487728E+03  0.00000000000E+00 0. -1.
         22    1    4    4    0    0 -0.79091198966E+01 -0.29191764949E+02  0.28049147864E+01  0.30374016286E+02  0.00000000000E+00 0.  1.
         22    1    4    4    0    0  0.31709261221E-01  0.38286047447E+00  0.43275901952E+00  0.57867779388E+00  0.00000000000E+00 0.  1.
<mgrwt>
<rscale>  0 0.92562558E+02</rscale>
<asrwt>0</asrwt>
<pdfrwt beam="1">  1        1 0.20948806E-01 0.92562558E+02</pdfrwt>
<pdfrwt beam="2">  1       -1 0.24200521E-02 0.92562558E+02</pdfrwt>
<totfact> 0.10576622E+05</totfact>
</mgrwt>
</event>
<event>
 7    1  0.3565607E-009  0.9318778E+02  0.7818608E-02  0.1295311E+00
         -1   -1    0    0    0  501 -0.00000000000E+00  0.00000000000E+00  0.70421142797E+02  0.70421142977E+02  0.50400000000E-02 0.  1.
          1   -1    0    0  501    0  0.00000000000E+00 -0.00000000000E+00 -0.30828677835E+02  0.30828678247E+02  0.50400000000E-02 0. -1.
         23    2    1    2    0    0  0.35527136788E-14  0.00000000000E+00  0.39592464962E+02  0.10124982122E+03  0.93187783620E+02 0.  0.
    9000005    2    3    3    0    0 -0.23569997156E+02  0.38697083341E+02  0.23636757682E+02  0.53212402270E+02  0.14827488545E+02 0.  0.
         22    1    3    3    0    0  0.23569997156E+02 -0.38697083341E+02  0.15955707280E+02  0.48037418954E+02  0.00000000000E+00 0.  1.
         22    1    4    4    0    0 -0.38282395520E+01  0.10682295043E+02  0.13155921175E+02  0.17373690092E+02  0.00000000000E+00 0. -1.
         22    1    4    4    0    0 -0.19741757604E+02  0.28014788298E+02  0.10480836508E+02  0.35838712178E+02  0.00000000000E+00 0. -1.
<mgrwt>
<rscale>  0 0.93187784E+02</rscale>
<asrwt>0</asrwt>
<pdfrwt beam="2">  1        1 0.47428736E-02 0.93187784E+02</pdfrwt>
<pdfrwt beam="1">  1       -1 0.10834022E-01 0.93187784E+02</pdfrwt>
<totfact> 0.81772110E+04</totfact>
</mgrwt>
</event>
<event>
 7    1  0.3565607E-009  0.9241580E+02  0.7818608E-02  0.1297105E+00
         -1   -1    0    0    0  501 -0.00000000000E+00  0.00000000000E+00  0.60569138270E+01  0.60569159240E+01  0.50400000000E-02 0.  1.
          1   -1    0    0  501    0  0.00000000000E+00 -0.00000000000E+00 -0.35251774649E+03  0.35251774652E+03  0.50400000000E-02 0. -1.
         23    2    1    2    0    0  0.00000000000E+00  0.00000000000E+00 -0.34646083266E+03  0.35857466245E+03  0.92415799415E+02 0.  0.
    9000005    2    3    3    0    0  0.39233027072E+02 -0.22333680028E+02 -0.17620455072E+03  0.18243487359E+03  0.14014839722E+02 0.  0.
         22    1    3    3    0    0 -0.39233027072E+02  0.22333680028E+02 -0.17025628194E+03  0.17613978885E+03  0.00000000000E+00 0. -1.
         22    1    4    4    0    0  0.11286765792E+02 -0.69891039442E+00 -0.56569841783E+02  0.57689050582E+02  0.00000000000E+00 0. -1.
         22    1    4    4    0    0  0.27946261280E+02 -0.21634769633E+02 -0.11963470894E+03  0.12474582301E+03  0.00000000000E+00 0. -1.
<mgrwt>
<rscale>  0 0.92415799E+02</rscale>
<asrwt>0</asrwt>
<pdfrwt beam="2">  1        1 0.54233483E-01 0.92415799E+02</pdfrwt>
<pdfrwt beam="1">  1       -1 0.93183334E-03 0.92415799E+02</pdfrwt>
<totfact> 0.12734213E+05</totfact>
</mgrwt>
</event>
<event>
 7    1  0.3565607E-009  0.9141286E+02  0.7818608E-02  0.1299466E+00
         -1   -1    0    0    0  501 -0.00000000000E+00  0.00000000000E+00  0.25114177428E+02  0.25114177934E+02  0.50400000000E-02 0.  1.
          1   -1    0    0  501    0  0.00000000000E+00 -0.00000000000E+00 -0.83183202310E+02  0.83183202463E+02  0.50400000000E-02 0. -1.
         23    2    1    2    0    0  0.00000000000E+00  0.00000000000E+00 -0.58069024882E+02  0.10829738040E+03  0.91412859872E+02 0.  0.
    9000005    2    3    3    0    0 -0.10480165265E+02 -0.28000861050E+02 -0.69733163953E+02  0.76204792098E+02  0.71115469687E+01 0.  0.
         22    1    3    3    0    0  0.10480165265E+02  0.28000861050E+02  0.11664139070E+02  0.32092588299E+02  0.00000000000E+00 0.  1.
         22    1    4    4    0    0 -0.10547953790E+02 -0.26180540731E+02 -0.68248408021E+02  0.73854757731E+02  0.00000000000E+00 0.  1.
         22    1    4    4    0    0  0.67788525345E-01 -0.18203203186E+01 -0.14847559315E+01  0.23500343663E+01  0.00000000000E+00 0.  1.
<mgrwt>
<rscale>  0 0.91412860E+02</rscale>
<asrwt>0</asrwt>
<pdfrwt beam="2">  1        1 0.12797416E-01 0.91412860E+02</pdfrwt>
<pdfrwt beam="1">  1       -1 0.38637197E-02 0.91412860E+02</pdfrwt>
<totfact> 0.10065236E+05</totfact>
</mgrwt>
</event>
<event>
 6    1  0.3565607E-009  0.1379166E+03  0.7818608E-02  0.1216160E+00
         -1   -1    0    0    0  501 -0.00000000000E+00  0.00000000000E+00  0.39771367008E+01  0.39771398942E+01  0.50400000000E-02 0.  1.
          1   -1    0    0  501    0  0.00000000000E+00 -0.00000000000E+00 -0.11956453193E+04  0.11956453193E+04  0.50400000000E-02 0. -1.
    9000005    2    1    2    0    0 -0.33887141046E+02  0.53275314536E+01 -0.11158751287E+04  0.11164280607E+04  0.75888724519E+01 0.  0.
         22    1    1    2    0    0  0.33887141046E+02 -0.53275314536E+01 -0.75793053849E+02  0.83194398438E+02  0.00000000000E+00 0.  1.
         22    1    3    3    0    0 -0.19314123869E+02  0.31758890986E+01 -0.51368121004E+03  0.51405399249E+03  0.00000000000E+00 0.  1.
         22    1    3    3    0    0 -0.14573017177E+02  0.21516423551E+01 -0.60219391869E+03  0.60237406825E+03  0.00000000000E+00 0.  1.
<mgrwt>
<rscale>  0 0.13791660E+03</rscale>
<asrwt>0</asrwt>
<pdfrwt beam="2">  1        1 0.18394515E+00 0.13791660E+03</pdfrwt>
<pdfrwt beam="1">  1       -1 0.61186839E-03 0.13791660E+03</pdfrwt>
<totfact> 0.41794470E+04</totfact>
</mgrwt>
</event>
<event>
 7    1  0.3565607E-009  0.8892584E+02  0.7818608E-02  0.1305474E+00
          1   -1    0    0  501    0  0.00000000000E+00  0.00000000000E+00  0.19163267693E+02  0.19163268356E+02  0.50400000000E-02 0. -1.
         -1   -1    0    0    0  501 -0.00000000000E+00 -0.00000000000E+00 -0.10316357626E+03  0.10316357638E+03  0.50400000000E-02 0.  1.
         23    2    1    2    0    0  0.00000000000E+00  0.00000000000E+00 -0.84000308566E+02  0.12232684474E+03  0.88925840475E+02 0.  0.
    9000005    2    3    3    0    0 -0.23407759453E+02  0.15810105012E+02 -0.88449497366E+02  0.93731776909E+02  0.12823798000E+02 0.  0.
         22    1    3    3    0    0  0.23407759453E+02 -0.15810105012E+02  0.44491888006E+01  0.28595067828E+02  0.00000000000E+00 0. -1.
         22    1    4    4    0    0 -0.14353533745E+02  0.12527180416E+02 -0.73652173793E+02  0.76076257036E+02  0.00000000000E+00 0. -1.
         22    1    4    4    0    0 -0.90542257079E+01  0.32829245956E+01 -0.14797323573E+02  0.17655519873E+02  0.00000000000E+00 0. -1.
<mgrwt>
<rscale>  0 0.88925840E+02</rscale>
<asrwt>0</asrwt>
<pdfrwt beam="1">  1        1 0.29481951E-02 0.88925840E+02</pdfrwt>
<pdfrwt beam="2">  1       -1 0.15871319E-01 0.88925840E+02</pdfrwt>
<totfact> 0.86272947E+04</totfact>
</mgrwt>
</event>
<event>
 7    1  0.3565607E-009  0.9122198E+02  0.7818608E-02  0.1299919E+00
          1   -1    0    0  501    0  0.00000000000E+00  0.00000000000E+00  0.14903212360E+02  0.14903213212E+02  0.50400000000E-02 0. -1.
         -1   -1    0    0    0  501 -0.00000000000E+00 -0.00000000000E+00 -0.13959153972E+03  0.13959153981E+03  0.50400000000E-02 0.  1.
         23    2    1    2    0    0  0.00000000000E+00  0.00000000000E+00 -0.12468832736E+03  0.15449475302E+03  0.91221980530E+02 0.  0.
    9000005    2    3    3    0    0 -0.42502150034E+02 -0.11671042087E+01 -0.34476368940E+02  0.54765156956E+02  0.16755630017E+01 0.  0.
         22    1    3    3    0    0  0.42502150034E+02  0.11671042087E+01 -0.90211958415E+02  0.99729596063E+02  0.00000000000E+00 0.  1.
         22    1    4    4    0    0 -0.42558177733E+01  0.38566531532E+00 -0.34937798083E+01  0.55197119494E+01  0.00000000000E+00 0.  1.
         22    1    4    4    0    0 -0.38246332261E+02 -0.15527695240E+01 -0.30982589131E+02  0.49245445006E+02  0.00000000000E+00 0.  1.
<mgrwt>
<rscale>  0 0.91221981E+02</rscale>
<asrwt>0</asrwt>
<pdfrwt beam="1">  1        1 0.22928021E-02 0.91221981E+02</pdfrwt>
<pdfrwt beam="2">  1       -1 0.21475621E-01 0.91221981E+02</pdfrwt>
<totfact> 0.75932245E+04</totfact>
</mgrwt>
</event>
<event>
 7    1  0.3565607E-009  0.9662115E+02  0.7818608E-02  0.1287566E+00
         -1   -1    0    0    0  501 -0.00000000000E+00  0.00000000000E+00  0.21547429207E+03  0.21547429213E+03  0.50400000000E-02 0.  1.
          1   -1    0    0  501    0  0.00000000000E+00 -0.00000000000E+00 -0.10831508669E+02  0.10831509842E+02  0.50400000000E-02 0. -1.
         23    2    1    2    0    0 -0.35527136788E-14  0.00000000000E+00  0.20464278340E+03  0.22630580197E+03  0.96621153002E+02 0.  0.
    9000005    2    3    3    0    0 -0.18955805543E+02 -0.42685274764E+02  0.86488955031E+02  0.99255881058E+02  0.13785330492E+02 0.  0.
         22    1    3    3    0    0  0.18955805543E+02  0.42685274764E+02  0.11815382837E+03  0.12704992091E+03  0.00000000000E+00 0. -1.
         22    1    4    4    0    0 -0.23451936371E+01 -0.66604065509E-01  0.87422625099E+01  0.90516033436E+01  0.00000000000E+00 0. -1.
         22    1    4    4    0    0 -0.16610611906E+02 -0.42618670699E+02  0.77746692521E+02  0.90204277715E+02  0.00000000000E+00 0. -1.
<mgrwt>
<rscale>  0 0.96621153E+02</rscale>
<asrwt>0</asrwt>
<pdfrwt beam="2">  1        1 0.16663859E-02 0.96621153E+02</pdfrwt>
<pdfrwt beam="1">  1       -1 0.33149893E-01 0.96621153E+02</pdfrwt>
<totfact> 0.58366175E+04</totfact>
</mgrwt>
</event>
<event>
 7    1  0.3565607E-009  0.9140561E+02  0.7818608E-02  0.1299483E+00
          1   -1    0    0  501    0  0.00000000000E+00  0.00000000000E+00  0.50278423339E+01  0.50278448600E+01  0.50400000000E-02 0. -1.
         -1   -1    0    0    0  501 -0.00000000000E+00 -0.00000000000E+00 -0.41543584051E+03  0.41543584054E+03  0.50400000000E-02 0.  1.
         23    2    1    2    0    0  0.88817841970E-15  0.00000000000E+00 -0.41040799818E+03  0.42046368540E+03  0.91405611282E+02 0.  0.
    9000005    2    3    3    0    0  0.73062877799E+01 -0.37774272493E+02 -0.31510072494E+03  0.31768356166E+03  0.12413742011E+02 0.  0.
         22    1    3    3    0    0 -0.73062877799E+01  0.37774272493E+02 -0.95307273240E+02  0.10278012374E+03  0.00000000000E+00 0. -1.
         22    1    4    4    0    0  0.33886478906E+01 -0.27086902907E+02 -0.17443898303E+03  0.17656200623E+03  0.00000000000E+00 0.  1.
         22    1    4    4    0    0  0.39176398893E+01 -0.10687369586E+02 -0.14066174191E+03  0.14112155543E+03  0.00000000000E+00 0.  1.
<mgrwt>
<rscale>  0 0.91405611E+02</rscale>
<asrwt>0</asrwt>
<pdfrwt beam="1">  1        1 0.77351473E-03 0.91405611E+02</pdfrwt>
<pdfrwt beam="2">  1       -1 0.63913179E-01 0.91405611E+02</pdfrwt>
<totfact> 0.51921047E+04</totfact>
</mgrwt>
</event>
<event>
 7    1  0.3565607E-009  0.8880956E+02  0.7818608E-02  0.1305760E+00
          1   -1    0    0  501    0  0.00000000000E+00  0.00000000000E+00  0.78306856997E+02  0.78306857159E+02  0.50400000000E-02 0. -1.
         -1   -1    0    0    0  501 -0.00000000000E+00 -0.00000000000E+00 -0.25180226942E+02  0.25180227447E+02  0.50400000000E-02 0.  1.
         23    2    1    2    0    0  0.71054273576E-14  0.17763568394E-14  0.53126630055E+02  0.10348708461E+03  0.88809559503E+02 0.  0.
    9000005    2    3    3    0    0  0.24538655504E+02  0.67104850202E+01 -0.13438222011E+02  0.32226606403E+02  0.14518681975E+02 0.  0.
         22    1    3    3    0    0 -0.24538655504E+02 -0.67104850202E+01  0.66564852066E+02  0.71260478203E+02  0.00000000000E+00 0. -1.
         22    1    4    4    0    0  0.20755368272E+02  0.10977310595E+02 -0.11885852386E+02  0.26316537518E+02  0.00000000000E+00 0. -1.
         22    1    4    4    0    0  0.37832872317E+01 -0.42668255752E+01 -0.15523696255E+01  0.59100688846E+01  0.00000000000E+00 0. -1.
<mgrwt>
<rscale>  0 0.88809560E+02</rscale>
<asrwt>0</asrwt>
<pdfrwt beam="1">  1        1 0.12047209E-01 0.88809560E+02</pdfrwt>
<pdfrwt beam="2">  1       -1 0.38738811E-02 0.88809560E+02</pdfrwt>
<totfact> 0.10790822E+05</totfact>
</mgrwt>
</event>
<event>
 7    1  0.3565607E-009  0.8922039E+02  0.7818608E-02  0.1304751E+00
         -1   -1    0    0    0  501 -0.00000000000E+00  0.00000000000E+00  0.90300368088E+01  0.90300382153E+01  0.50400000000E-02 0.  1.
          1   -1    0    0  501    0  0.00000000000E+00 -0.00000000000E+00 -0.22038328971E+03  0.22038328977E+03  0.50400000000E-02 0. -1.
         23    2    1    2    0    0  0.00000000000E+00  0.00000000000E+00 -0.21135325290E+03  0.22941332798E+03  0.89220387493E+02 0.  0.
    9000005    2    3    3    0    0  0.17472046109E+02  0.29100325303E+02 -0.17827345498E+03  0.18201739611E+03  0.14028770658E+02 0.  0.
         22    1    3    3    0    0 -0.17472046109E+02 -0.29100325303E+02 -0.33079797917E+02  0.47395931874E+02  0.00000000000E+00 0.  1.
         22    1    4    4    0    0  0.85890573344E+00  0.13347618426E+02 -0.52483528529E+02  0.54161032150E+02  0.00000000000E+00 0.  1.
         22    1    4    4    0    0  0.16613140376E+02  0.15752706877E+02 -0.12578992646E+03  0.12785636396E+03  0.00000000000E+00 0.  1.
<mgrwt>
<rscale>  0 0.89220387E+02</rscale>
<asrwt>0</asrwt>
<pdfrwt beam="2">  1        1 0.33905118E-01 0.89220387E+02</pdfrwt>
<pdfrwt beam="1">  1       -1 0.13892367E-02 0.89220387E+02</pdfrwt>
<totfact> 0.12786584E+05</totfact>
</mgrwt>
</event>
<event>
 7    1  0.3565607E-009  0.9160548E+02  0.7818608E-02  0.1299010E+00
          1   -1    0    0  501    0  0.00000000000E+00  0.00000000000E+00  0.76565192001E+02  0.76565192167E+02  0.50400000000E-02 0. -1.
         -1   -1    0    0    0  501 -0.00000000000E+00 -0.00000000000E+00 -0.27400062845E+02  0.27400063308E+02  0.50400000000E-02 0.  1.
         23    2    1    2    0    0  0.00000000000E+00 -0.35527136788E-14  0.49165129157E+02  0.10396525548E+03  0.91605482483E+02 0.  0.
    9000005    2    3    3    0    0 -0.21432855193E+02 -0.22968760268E+02  0.61054553806E+02  0.70375232425E+02  0.15429956849E+02 0.  0.
         22    1    3    3    0    0  0.21432855193E+02  0.22968760268E+02 -0.11889424650E+02  0.33590023050E+02  0.00000000000E+00 0.  1.
         22    1    4    4    0    0 -0.10737109712E+01 -0.49476239008E+01  0.23333780083E+02  0.23876706860E+02  0.00000000000E+00 0.  1.
         22    1    4    4    0    0 -0.20359144222E+02 -0.18021136368E+02  0.37720773723E+02  0.46498525565E+02  0.00000000000E+00 0.  1.
<mgrwt>
<rscale>  0 0.91605482E+02</rscale>
<asrwt>0</asrwt>
<pdfrwt beam="1">  1        1 0.11779260E-01 0.91605482E+02</pdfrwt>
<pdfrwt beam="2">  1       -1 0.42153943E-02 0.91605482E+02</pdfrwt>
<totfact> 0.98768438E+04</totfact>
</mgrwt>
</event>
<event>
 7    1  0.3565607E-009  0.9506117E+02  0.7818608E-02  0.1291038E+00
          1   -1    0    0  501    0  0.00000000000E+00  0.00000000000E+00  0.29062653800E+03  0.29062653804E+03  0.50400000000E-02 0. -1.
         -1   -1    0    0    0  501 -0.00000000000E+00 -0.00000000000E+00 -0.77733991546E+01  0.77734007885E+01  0.50400000000E-02 0.  1.
         23    2    1    2    0    0  0.00000000000E+00 -0.71054273576E-14  0.28285313884E+03  0.29839993883E+03  0.95061166310E+02 0.  0.
    9000005    2    3    3    0    0  0.18063920831E+02 -0.41710726949E+02  0.18470742490E+03  0.19023954338E+03  0.28567593362E+01 0.  0.
         22    1    3    3    0    0 -0.18063920831E+02  0.41710726949E+02  0.98145713937E+02  0.10816039544E+03  0.00000000000E+00 0.  1.
         22    1    4    4    0    0  0.93775439812E+01 -0.23349911926E+02  0.10739631087E+03  0.11030468851E+03  0.00000000000E+00 0.  1.
         22    1    4    4    0    0  0.86863768494E+01 -0.18360815023E+02  0.77311114031E+02  0.79934854874E+02  0.00000000000E+00 0.  1.
<mgrwt>
<rscale>  0 0.95061166E+02</rscale>
<asrwt>0</asrwt>
<pdfrwt beam="1">  1        1 0.44711774E-01 0.95061166E+02</pdfrwt>
<pdfrwt beam="2">  1       -1 0.11959077E-02 0.95061166E+02</pdfrwt>
<totfact> 0.11390784E+05</totfact>
</mgrwt>
</event>
<event>
 7    1  0.3565607E-009  0.9055154E+02  0.7818608E-02  0.1301522E+00
         -1   -1    0    0    0  501 -0.00000000000E+00  0.00000000000E+00  0.19441432621E+02  0.19441433274E+02  0.50400000000E-02 0.  1.
          1   -1    0    0  501    0  0.00000000000E+00 -0.00000000000E+00 -0.10543951987E+03  0.10543951999E+03  0.50400000000E-02 0. -1.
         23    2    1    2    0    0  0.00000000000E+00  0.88817841970E-15 -0.85998087250E+02  0.12488095327E+03  0.90551540450E+02 0.  0.
    9000005    2    3    3    0    0  0.21282216685E+02  0.40483579155E+01  0.86966254565E+01  0.27739764456E+02  0.14984701828E+02 0.  0.
         22    1    3    3    0    0 -0.21282216685E+02 -0.40483579155E+01 -0.94694712707E+02  0.97141188810E+02  0.00000000000E+00 0. -1.
         22    1    4    4    0    0  0.15475629244E+02  0.88385265949E+01  0.25128348433E+01  0.17998027443E+02  0.00000000000E+00 0.  1.
         22    1    4    4    0    0  0.58065874406E+01 -0.47901686794E+01  0.61837906132E+01  0.97417370130E+01  0.00000000000E+00 0.  1.
<mgrwt>
<rscale>  0 0.90551540E+02</rscale>
<asrwt>0</asrwt>
<pdfrwt beam="2">  1        1 0.16221464E-01 0.90551540E+02</pdfrwt>
<pdfrwt beam="1">  1       -1 0.29909898E-02 0.90551540E+02</pdfrwt>
<totfact> 0.10737232E+05</totfact>
</mgrwt>
</event>
<event>
 7    1  0.3565607E-009  0.9017439E+02  0.7818608E-02  0.1302430E+00
         -1   -1    0    0    0  501 -0.00000000000E+00  0.00000000000E+00  0.85029515150E+01  0.85029530087E+01  0.50400000000E-02 0.  1.
          1   -1    0    0  501    0  0.00000000000E+00 -0.00000000000E+00 -0.23907641321E+03  0.23907641326E+03  0.50400000000E-02 0. -1.
         23    2    1    2    0    0  0.71054273576E-14  0.00000000000E+00 -0.23057346169E+03  0.24757936627E+03  0.90174394178E+02 0.  0.
    9000005    2    3    3    0    0 -0.41387857991E+02 -0.41900964279E+01 -0.70343896218E+02  0.82037754131E+02  0.71706115928E+01 0.  0.
         22    1    3    3    0    0  0.41387857991E+02  0.41900964279E+01 -0.16022956547E+03  0.16554161214E+03  0.00000000000E+00 0. -1.
         22    1    4    4    0    0 -0.42801797499E+01 -0.26020809781E+01 -0.69949277532E+01  0.86034747853E+01  0.00000000000E+00 0. -1.
         22    1    4    4    0    0 -0.37107678241E+02 -0.15880154498E+01 -0.63348968465E+02  0.73434279346E+02  0.00000000000E+00 0. -1.
<mgrwt>
<rscale>  0 0.90174394E+02</rscale>
<asrwt>0</asrwt>
<pdfrwt beam="2">  1        1 0.36780982E-01 0.90174394E+02</pdfrwt>
<pdfrwt beam="1">  1       -1 0.13081467E-02 0.90174394E+02</pdfrwt>
<totfact> 0.12627091E+05</totfact>
</mgrwt>
</event>
<event>
 7    1  0.3565607E-009  0.9044135E+02  0.7818608E-02  0.1301786E+00
         -1   -1    0    0    0  501 -0.00000000000E+00  0.00000000000E+00  0.20479556331E+01  0.20479618348E+01  0.50400000000E-02 0.  1.
          1   -1    0    0  501    0  0.00000000000E+00 -0.00000000000E+00 -0.99851106697E+03  0.99851106699E+03  0.50400000000E-02 0. -1.
         23    2    1    2    0    0  0.00000000000E+00  0.00000000000E+00 -0.99646311134E+03  0.10005590288E+04  0.90441350570E+02 0.  0.
    9000005    2    3    3    0    0 -0.12187372680E+02  0.34767915487E+02 -0.78594965419E+03  0.78684600713E+03  0.72415475012E+01 0.  0.
         22    1    3    3    0    0  0.12187372680E+02 -0.34767915487E+02 -0.21051345715E+03  0.21371302170E+03  0.00000000000E+00 0.  1.
         22    1    4    4    0    0 -0.10671517693E+02  0.24086072121E+02 -0.50096471327E+03  0.50165691872E+03  0.00000000000E+00 0. -1.
         22    1    4    4    0    0 -0.15158549870E+01  0.10681843366E+02 -0.28498494092E+03  0.28518908841E+03  0.00000000000E+00 0. -1.
<mgrwt>
<rscale>  0 0.90441351E+02</rscale>
<asrwt>0</asrwt>
<pdfrwt beam="2">  1        1 0.15361670E+00 0.90441351E+02</pdfrwt>
<pdfrwt beam="1">  1       -1 0.31507137E-03 0.90441351E+02</pdfrwt>
<totfact> 0.13901282E+05</totfact>
</mgrwt>
</event>
<event>
 7    1  0.3565607E-009  0.9082084E+02  0.7818608E-02  0.1300876E+00
          1   -1    0    0  501    0  0.00000000000E+00  0.00000000000E+00  0.98483207136E+01  0.98483220032E+01  0.50400000000E-02 0. -1.
         -1   -1    0    0    0  501 -0.00000000000E+00 -0.00000000000E+00 -0.20938655594E+03  0.20938655600E+03  0.50400000000E-02 0.  1.
         23    2    1    2    0    0  0.00000000000E+00  0.00000000000E+00 -0.19953823523E+03  0.21923487800E+03  0.90820836905E+02 0.  0.
    9000005    2    3    3    0    0 -0.92243743914E+01  0.32421164643E+02 -0.29100426573E+02  0.45495798870E+02  0.93172897523E+01 0.  0.
         22    1    3    3    0    0  0.92243743914E+01 -0.32421164643E+02 -0.17043780865E+03  0.17373907913E+03  0.00000000000E+00 0.  1.
         22    1    4    4    0    0 -0.33971276667E+01  0.23697403497E+02 -0.16378951772E+02  0.29006507374E+02  0.00000000000E+00 0.  1.
         22    1    4    4    0    0 -0.58272467247E+01  0.87237611464E+01 -0.12721474800E+02  0.16489291496E+02  0.00000000000E+00 0.  1.
<mgrwt>
<rscale>  0 0.90820837E+02</rscale>
<asrwt>0</asrwt>
<pdfrwt beam="1">  1        1 0.15151265E-02 0.90820837E+02</pdfrwt>
<pdfrwt beam="2">  1       -1 0.32213313E-01 0.90820837E+02</pdfrwt>
<totfact> 0.69206425E+04</totfact>
</mgrwt>
</event>
<event>
 7    1  0.3565607E-009  0.9139063E+02  0.7818608E-02  0.1299519E+00
         -1   -1    0    0    0  501 -0.00000000000E+00  0.00000000000E+00  0.21491980575E+03  0.21491980581E+03  0.50400000000E-02 0.  1.
          1   -1    0    0  501    0  0.00000000000E+00 -0.00000000000E+00 -0.97155375211E+01  0.97155388284E+01  0.50400000000E-02 0. -1.
         23    2    1    2    0    0  0.00000000000E+00  0.00000000000E+00  0.20520426823E+03  0.22463534464E+03  0.91390625127E+02 0.  0.
    9000005    2    3    3    0    0 -0.27255235627E+02 -0.19192321257E+02  0.17883352283E+03  0.18213111806E+03  0.88950667304E+01 0.  0.
         22    1    3    3    0    0  0.27255235627E+02  0.19192321257E+02  0.26370745396E+02  0.42504226578E+02  0.00000000000E+00 0. -1.
         22    1    4    4    0    0 -0.13251547758E+02 -0.13027766684E+02  0.11484613664E+03  0.11633985269E+03  0.00000000000E+00 0.  1.
         22    1    4    4    0    0 -0.14003687869E+02 -0.61645545723E+01  0.63987386189E+02  0.65791265365E+02  0.00000000000E+00 0.  1.
<mgrwt>
<rscale>  0 0.91390625E+02</rscale>
<asrwt>0</asrwt>
<pdfrwt beam="2">  1        1 0.14946983E-02 0.91390625E+02</pdfrwt>
<pdfrwt beam="1">  1       -1 0.33064582E-01 0.91390625E+02</pdfrwt>
<totfact> 0.67558507E+04</totfact>
</mgrwt>
</event>
<event>
 7    1  0.3565607E-009  0.9076160E+02  0.7818608E-02  0.1301018E+00
          1   -1    0    0  501    0  0.00000000000E+00  0.00000000000E+00  0.12875925773E+02  0.12875926760E+02  0.50400000000E-02 0. -1.
         -1   -1    0    0    0  501 -0.00000000000E+00 -0.00000000000E+00 -0.15994322279E+03  0.15994322287E+03  0.50400000000E-02 0.  1.
         23    2    1    2    0    0  0.00000000000E+00  0.00000000000E+00 -0.14706729702E+03  0.17281914963E+03  0.90761603263E+02 0.  0.
    9000005    2    3    3    0    0 -0.15098288999E+02  0.20007217515E+01 -0.15458816166E+03  0.15583313706E+03  0.12430030590E+02 0.  0.
         22    1    3    3    0    0  0.15098288999E+02 -0.20007217515E+01  0.75208646433E+01  0.16986012575E+02  0.00000000000E+00 0. -1.
         22    1    4    4    0    0 -0.59379514382E+01  0.59487447342E+01 -0.99077446264E+02  0.99433330375E+02  0.00000000000E+00 0.  1.
         22    1    4    4    0    0 -0.91603375609E+01 -0.39480229828E+01 -0.55510715397E+02  0.56399806681E+02  0.00000000000E+00 0.  1.
<mgrwt>
<rscale>  0 0.90761603E+02</rscale>
<asrwt>0</asrwt>
<pdfrwt beam="1">  1        1 0.19809118E-02 0.90761603E+02</pdfrwt>
<pdfrwt beam="2">  1       -1 0.24606648E-01 0.90761603E+02</pdfrwt>
<totfact> 0.74527782E+04</totfact>
</mgrwt>
</event>
<event>
 7    1  0.3565607E-009  0.9122846E+02  0.7818608E-02  0.1299904E+00
         -1   -1    0    0    0  501 -0.00000000000E+00  0.00000000000E+00  0.33518994673E+01  0.33519032565E+01  0.50400000000E-02 0.  1.
          1   -1    0    0  501    0  0.00000000000E+00 -0.00000000000E+00 -0.62073960860E+03  0.62073960862E+03  0.50400000000E-02 0. -1.
         23    2    1    2    0    0  0.00000000000E+00  0.88817841970E-15 -0.61738770913E+03  0.62409151188E+03  0.91228459423E+02 0.  0.
    9000005    2    3    3    0    0  0.33475723900E+02 -0.52597229774E+01 -0.51596230287E+03  0.51715507369E+03  0.91642503511E+01 0.  0.
         22    1    3    3    0    0 -0.33475723900E+02  0.52597229774E+01 -0.10142540626E+03  0.10693643819E+03  0.00000000000E+00 0.  1.
         22    1    4    4    0    0  0.30891886565E+02 -0.68018088834E+01 -0.48978929795E+03  0.49080966743E+03  0.00000000000E+00 0. -1.
         22    1    4    4    0    0  0.25838373351E+01  0.15420859061E+01 -0.26173004921E+02  0.26345406258E+02  0.00000000000E+00 0. -1.
<mgrwt>
<rscale>  0 0.91228459E+02</rscale>
<asrwt>0</asrwt>
<pdfrwt beam="2">  1        1 0.95498310E-01 0.91228459E+02</pdfrwt>
<pdfrwt beam="1">  1       -1 0.51567763E-03 0.91228459E+02</pdfrwt>
<totfact> 0.14163062E+05</totfact>
</mgrwt>
</event>
<event>
 7    1  0.3565607E-009  0.9162236E+02  0.7818608E-02  0.1298970E+00
         -1   -1    0    0    0  501 -0.00000000000E+00  0.00000000000E+00  0.56469762580E+01  0.56469785072E+01  0.50400000000E-02 0.  1.
          1   -1    0    0  501    0  0.00000000000E+00 -0.00000000000E+00 -0.37164383810E+03  0.37164383814E+03  0.50400000000E-02 0. -1.
         23    2    1    2    0    0 -0.35527136788E-14  0.00000000000E+00 -0.36599686185E+03  0.37729081665E+03  0.91622363230E+02 0.  0.
    9000005    2    3    3    0    0 -0.30824561126E+02  0.33225371045E+02 -0.16253150551E+03  0.16883883158E+03  0.59984927750E+01 0.  0.
         22    1    3    3    0    0  0.30824561126E+02 -0.33225371045E+02 -0.20346535634E+03  0.20845198507E+03  0.00000000000E+00 0. -1.
         22    1    4    4    0    0 -0.15608742348E+02  0.20937940914E+02 -0.96568836135E+02  0.10003784444E+03  0.00000000000E+00 0.  1.
         22    1    4    4    0    0 -0.15215818778E+02  0.12287430130E+02 -0.65962669375E+02  0.68800987140E+02  0.00000000000E+00 0.  1.
<mgrwt>
<rscale>  0 0.91622363E+02</rscale>
<asrwt>0</asrwt>
<pdfrwt beam="2">  1        1 0.57175956E-01 0.91622363E+02</pdfrwt>
<pdfrwt beam="1">  1       -1 0.86876605E-03 0.91622363E+02</pdfrwt>
<totfact> 0.13151097E+05</totfact>
</mgrwt>
</event>
<event>
 7    1  0.3565607E-009  0.9036054E+02  0.7818608E-02  0.1301981E+00
          1   -1    0    0  501    0  0.00000000000E+00  0.00000000000E+00  0.16772041480E+03  0.16772041488E+03  0.50400000000E-02 0. -1.
         -1   -1    0    0    0  501 -0.00000000000E+00 -0.00000000000E+00 -0.12170591669E+02  0.12170592713E+02  0.50400000000E-02 0.  1.
         23    2    1    2    0    0 -0.35527136788E-14  0.35527136788E-14  0.15554982314E+03  0.17989100759E+03  0.90360539703E+02 0.  0.
    9000005    2    3    3    0    0  0.25494645484E+02 -0.22022998924E+02  0.13644083175E+03  0.14115932829E+03  0.13223689508E+02 0.  0.
         22    1    3    3    0    0 -0.25494645484E+02  0.22022998924E+02  0.19108991385E+02  0.38731679304E+02  0.00000000000E+00 0.  1.
         22    1    4    4    0    0  0.24876920571E+02 -0.18798294712E+02  0.13202238818E+03  0.13565451722E+03  0.00000000000E+00 0. -1.
         22    1    4    4    0    0  0.61772491278E+00 -0.32247042123E+01  0.44184435686E+01  0.55048110680E+01  0.00000000000E+00 0. -1.
<mgrwt>
<rscale>  0 0.90360540E+02</rscale>
<asrwt>0</asrwt>
<pdfrwt beam="1">  1        1 0.25803142E-01 0.90360540E+02</pdfrwt>
<pdfrwt beam="2">  1       -1 0.18723988E-02 0.90360540E+02</pdfrwt>
<totfact> 0.11728585E+05</totfact>
</mgrwt>
</event>
<event>
 7    1  0.3565607E-009  0.8979004E+02  0.7818608E-02  0.1303361E+00
          1   -1    0    0  501    0  0.00000000000E+00  0.00000000000E+00  0.44470813401E+03  0.44470813404E+03  0.50400000000E-02 0. -1.
         -1   -1    0    0    0  501 -0.00000000000E+00 -0.00000000000E+00 -0.45323255722E+01  0.45323283745E+01  0.50400000000E-02 0.  1.
         23    2    1    2    0    0 -0.88817841970E-15  0.17763568394E-14  0.44017580843E+03  0.44924046241E+03  0.89790036948E+02 0.  0.
    9000005    2    3    3    0    0  0.47975964112E+01  0.14155146159E+02  0.43177170243E+03  0.43209362329E+03  0.73967000981E+01 0.  0.
         22    1    3    3    0    0 -0.47975964112E+01 -0.14155146159E+02  0.84041060020E+01  0.17146839120E+02  0.00000000000E+00 0.  1.
         22    1    4    4    0    0  0.60124693330E+01  0.65935278195E+01  0.25505190921E+03  0.25520795596E+03  0.00000000000E+00 0. -1.
         22    1    4    4    0    0 -0.12148729218E+01  0.75616183394E+01  0.17671979323E+03  0.17688566733E+03  0.00000000000E+00 0. -1.
<mgrwt>
<rscale>  0 0.89790037E+02</rscale>
<asrwt>0</asrwt>
<pdfrwt beam="1">  1        1 0.68416633E-01 0.89790037E+02</pdfrwt>
<pdfrwt beam="2">  1       -1 0.69728111E-03 0.89790037E+02</pdfrwt>
<totfact> 0.14280710E+05</totfact>
</mgrwt>
</event>
<event>
 7    1  0.3565607E-009  0.8943505E+02  0.7818608E-02  0.1304226E+00
          1   -1    0    0  501    0  0.00000000000E+00  0.00000000000E+00  0.13085480425E+03  0.13085480435E+03  0.50400000000E-02 0. -1.
         -1   -1    0    0    0  501 -0.00000000000E+00 -0.00000000000E+00 -0.15281495682E+02  0.15281496514E+02  0.50400000000E-02 0.  1.
         23    2    1    2    0    0 -0.17763568394E-14  0.00000000000E+00  0.11557330857E+03  0.14613630086E+03  0.89435053397E+02 0.  0.
    9000005    2    3    3    0    0  0.14391031376E+02  0.12370256080E+02  0.12376737025E+03  0.12546584692E+03  0.79493260583E+01 0.  0.
         22    1    3    3    0    0 -0.14391031376E+02 -0.12370256080E+02 -0.81940616784E+01  0.20670453946E+02  0.00000000000E+00 0.  1.
         22    1    4    4    0    0  0.53823934339E+01  0.24492507530E+01  0.60879986613E+02  0.61166508469E+02  0.00000000000E+00 0.  1.
         22    1    4    4    0    0  0.90086379424E+01  0.99210053269E+01  0.62887383635E+02  0.64299338447E+02  0.00000000000E+00 0.  1.
<mgrwt>
<rscale>  0 0.89435053E+02</rscale>
<asrwt>0</asrwt>
<pdfrwt beam="1">  1        1 0.20131509E-01 0.89435053E+02</pdfrwt>
<pdfrwt beam="2">  1       -1 0.23509993E-02 0.89435053E+02</pdfrwt>
<totfact> 0.11524533E+05</totfact>
</mgrwt>
</event>
<event>
 7    1  0.3565607E-009  0.9102477E+02  0.7818608E-02  0.1300389E+00
          1   -1    0    0  501    0  0.00000000000E+00  0.00000000000E+00  0.10786549124E+03  0.10786549136E+03  0.50400000000E-02 0. -1.
         -1   -1    0    0    0  501 -0.00000000000E+00 -0.00000000000E+00 -0.19203336411E+02  0.19203337072E+02  0.50400000000E-02 0.  1.
         23    2    1    2    0    0  0.00000000000E+00  0.35527136788E-14  0.88662154827E+02  0.12706882843E+03  0.91024773878E+02 0.  0.
    9000005    2    3    3    0    0  0.27528908096E+02 -0.29791990145E+02  0.71988379798E+02  0.83212036121E+02  0.98240863040E+01 0.  0.
         22    1    3    3    0    0 -0.27528908096E+02  0.29791990145E+02  0.16673775029E+02  0.43856792307E+02  0.00000000000E+00 0.  1.
         22    1    4    4    0    0  0.18745970400E+02 -0.13283223587E+02  0.41920954975E+02  0.47803994615E+02  0.00000000000E+00 0.  1.
         22    1    4    4    0    0  0.87829376959E+01 -0.16508766558E+02  0.30067424823E+02  0.35408041507E+02  0.00000000000E+00 0.  1.
<mgrwt>
<rscale>  0 0.91024774E+02</rscale>
<asrwt>0</asrwt>
<pdfrwt beam="1">  1        1 0.16594691E-01 0.91024774E+02</pdfrwt>
<pdfrwt beam="2">  1       -1 0.29543595E-02 0.91024774E+02</pdfrwt>
<totfact> 0.10626912E+05</totfact>
</mgrwt>
</event>
<event>
 7    1  0.3565607E-009  0.9148058E+02  0.7818608E-02  0.1299305E+00
          1   -1    0    0  501    0  0.00000000000E+00  0.00000000000E+00  0.45190613332E+03  0.45190613335E+03  0.50400000000E-02 0. -1.
         -1   -1    0    0    0  501 -0.00000000000E+00 -0.00000000000E+00 -0.46296643417E+01  0.46296670850E+01  0.50400000000E-02 0.  1.
         23    2    1    2    0    0  0.35527136788E-14  0.00000000000E+00  0.44727646898E+03  0.45653580044E+03  0.91480584692E+02 0.  0.
    9000005    2    3    3    0    0 -0.16949333348E+02  0.41159421544E+02  0.18640248244E+03  0.19189148302E+03  0.97507905229E+01 0.  0.
         22    1    3    3    0    0  0.16949333348E+02 -0.41159421544E+02  0.26087398655E+03  0.26464431741E+03  0.00000000000E+00 0.  1.
         22    1    4    4    0    0 -0.11188104234E+01  0.12601743779E+02  0.43248754436E+02  0.45061185552E+02  0.00000000000E+00 0.  1.
         22    1    4    4    0    0 -0.15830522925E+02  0.28557677765E+02  0.14315372800E+03  0.14683029747E+03  0.00000000000E+00 0.  1.
<mgrwt>
<rscale>  0 0.91480585E+02</rscale>
<asrwt>0</asrwt>
<pdfrwt beam="1">  1        1 0.69524005E-01 0.91480585E+02</pdfrwt>
<pdfrwt beam="2">  1       -1 0.71225643E-03 0.91480585E+02</pdfrwt>
<totfact> 0.13623232E+05</totfact>
</mgrwt>
</event>
<event>
 7    1  0.3565607E-009  0.9271926E+02  0.7818608E-02  0.1296397E+00
          1   -1    0    0  501    0  0.00000000000E+00  0.00000000000E+00  0.32364432607E+01  0.32364471850E+01  0.50400000000E-02 0. -1.
         -1   -1    0    0    0  501 -0.00000000000E+00 -0.00000000000E+00 -0.66406669461E+03  0.66406669463E+03  0.50400000000E-02 0.  1.
         23    2    1    2    0    0  0.00000000000E+00  0.35527136788E-14 -0.66083025135E+03  0.66730314182E+03  0.92719264323E+02 0.  0.
    9000005    2    3    3    0    0 -0.11393014212E+02  0.25924667422E+02 -0.59398963143E+03  0.59471142311E+03  0.74903520028E+01 0.  0.
         22    1    3    3    0    0  0.11393014212E+02 -0.25924667422E+02 -0.66840619922E+02  0.72591718710E+02  0.00000000000E+00 0. -1.
         22    1    4    4    0    0 -0.83391261128E+01  0.16604747330E+02 -0.45310749865E+03  0.45348832839E+03  0.00000000000E+00 0. -1.
         22    1    4    4    0    0 -0.30538880997E+01  0.93199200919E+01 -0.14088213278E+03  0.14122309471E+03  0.00000000000E+00 0. -1.
<mgrwt>
<rscale>  0 0.92719264E+02</rscale>
<asrwt>0</asrwt>
<pdfrwt beam="1">  1        1 0.49791518E-03 0.92719264E+02</pdfrwt>
<pdfrwt beam="2">  1       -1 0.10216400E+00 0.92719264E+02</pdfrwt>
<totfact> 0.36832479E+04</totfact>
</mgrwt>
</event>
<event>
 7    1  0.3565607E-009  0.9362600E+02  0.7818608E-02  0.1294301E+00
         -1   -1    0    0    0  501 -0.00000000000E+00  0.00000000000E+00  0.28088296123E+01  0.28088341340E+01  0.50400000000E-02 0.  1.
          1   -1    0    0  501    0  0.00000000000E+00 -0.00000000000E+00 -0.78020220712E+03  0.78020220713E+03  0.50400000000E-02 0. -1.
         23    2    1    2    0    0  0.00000000000E+00  0.00000000000E+00 -0.77739337750E+03  0.78301104127E+03  0.93625997236E+02 0.  0.
    9000005    2    3    3    0    0  0.16259329063E+02  0.35889314919E+02 -0.59220911128E+03  0.59368164269E+03  0.13923098868E+02 0.  0.
         22    1    3    3    0    0 -0.16259329063E+02 -0.35889314919E+02 -0.18518426622E+03  0.18932939857E+03  0.00000000000E+00 0.  1.
         22    1    4    4    0    0  0.10338224999E+02  0.10757065108E+02 -0.28458825457E+03  0.28497906587E+03  0.00000000000E+00 0.  1.
         22    1    4    4    0    0  0.59211040638E+01  0.25132249810E+02 -0.30762085671E+03  0.30870257682E+03  0.00000000000E+00 0.  1.
<mgrwt>
<rscale>  0 0.93625997E+02</rscale>
<asrwt>0</asrwt>
<pdfrwt beam="2">  1        1 0.12003094E+00 0.93625997E+02</pdfrwt>
<pdfrwt beam="1">  1       -1 0.43212860E-03 0.93625997E+02</pdfrwt>
<totfact> 0.13198425E+05</totfact>
</mgrwt>
</event>
<event>
 7    1  0.3565607E-009  0.9271634E+02  0.7818608E-02  0.1296404E+00
         -1   -1    0    0    0  501 -0.00000000000E+00  0.00000000000E+00  0.54923342635E+03  0.54923342638E+03  0.50400000000E-02 0. -1.
          1   -1    0    0  501    0  0.00000000000E+00 -0.00000000000E+00 -0.39128702052E+01  0.39128734511E+01  0.50400000000E-02 0.  1.
         23    2    1    2    0    0 -0.17763568394E-14  0.00000000000E+00  0.54532055615E+03  0.55314629983E+03  0.92716341900E+02 0.  0.
    9000005    2    3    3    0    0 -0.15878558987E+02 -0.34610865026E+02  0.42873031701E+03  0.43049506879E+03  0.81411862483E+01 0.  0.
         22    1    3    3    0    0  0.15878558987E+02  0.34610865026E+02  0.11659023914E+03  0.12265123104E+03  0.00000000000E+00 0.  1.
         22    1    4    4    0    0 -0.73346612457E+01 -0.24762919433E+02  0.29732319577E+03  0.29844276197E+03  0.00000000000E+00 0.  1.
         22    1    4    4    0    0 -0.85438977416E+01 -0.98479455931E+01  0.13140712125E+03  0.13205230682E+03  0.00000000000E+00 0.  1.
<mgrwt>
<rscale>  0 0.92716342E+02</rscale>
<asrwt>0</asrwt>
<pdfrwt beam="2">  1        1 0.60198011E-03 0.92716342E+02</pdfrwt>
<pdfrwt beam="1">  1       -1 0.84497475E-01 0.92716342E+02</pdfrwt>
<totfact> 0.42374483E+04</totfact>
</mgrwt>
</event>
<event>
 7    1  0.3565607E-009  0.9310938E+02  0.7818608E-02  0.1295492E+00
          1   -1    0    0  501    0  0.00000000000E+00  0.00000000000E+00  0.18019737691E+03  0.18019737698E+03  0.50400000000E-02 0. -1.
         -1   -1    0    0    0  501 -0.00000000000E+00 -0.00000000000E+00 -0.12027584592E+02  0.12027585647E+02  0.50400000000E-02 0.  1.
         23    2    1    2    0    0  0.00000000000E+00  0.00000000000E+00  0.16816979231E+03  0.19222496262E+03  0.93109383032E+02 0.  0.
    9000005    2    3    3    0    0 -0.35417524078E+02  0.20166264720E+02  0.44055087856E+02  0.61589825286E+02  0.13833892011E+02 0.  0.
         22    1    3    3    0    0  0.35417524078E+02 -0.20166264720E+02  0.12411470446E+03  0.13063513734E+03  0.00000000000E+00 0. -1.
         22    1    4    4    0    0 -0.79184224085E+01  0.42903286406E+01  0.26047872348E+01  0.93751399895E+01  0.00000000000E+00 0. -1.
         22    1    4    4    0    0 -0.27499101669E+02  0.15875936079E+02  0.41450300621E+02  0.52214685296E+02  0.00000000000E+00 0. -1.
<mgrwt>
<rscale>  0 0.93109383E+02</rscale>
<asrwt>0</asrwt>
<pdfrwt beam="1">  1        1 0.27722673E-01 0.93109383E+02</pdfrwt>
<pdfrwt beam="2">  1       -1 0.18503978E-02 0.93109383E+02</pdfrwt>
<totfact> 0.10967873E+05</totfact>
</mgrwt>
</event>
<event>
 7    1  0.3565607E-009  0.9070798E+02  0.7818608E-02  0.1301146E+00
          1   -1    0    0  501    0  0.00000000000E+00  0.00000000000E+00  0.11209412509E+03  0.11209412520E+03  0.50400000000E-02 0. -1.
         -1   -1    0    0    0  501 -0.00000000000E+00 -0.00000000000E+00 -0.18350507953E+02  0.18350508645E+02  0.50400000000E-02 0.  1.
         23    2    1    2    0    0  0.00000000000E+00  0.00000000000E+00  0.93743617137E+02  0.13044463385E+03  0.90707975095E+02 0.  0.
    9000005    2    3    3    0    0  0.15066568604E+02  0.24202090514E+02  0.96896824803E+02  0.10176214105E+03  0.12401452276E+02 0.  0.
         22    1    3    3    0    0 -0.15066568604E+02 -0.24202090514E+02 -0.31532076662E+01  0.28682492802E+02  0.00000000000E+00 0.  1.
         22    1    4    4    0    0  0.16525611819E+01  0.11394991479E+02  0.50498142850E+02  0.51794200646E+02  0.00000000000E+00 0. -1.
         22    1    4    4    0    0  0.13414007422E+02  0.12807099035E+02  0.46398681953E+02  0.49967940400E+02  0.00000000000E+00 0. -1.
<mgrwt>
<rscale>  0 0.90707975E+02</rscale>
<asrwt>0</asrwt>
<pdfrwt beam="1">  1        1 0.17245250E-01 0.90707975E+02</pdfrwt>
<pdfrwt beam="2">  1       -1 0.28231552E-02 0.90707975E+02</pdfrwt>
<totfact> 0.10798236E+05</totfact>
</mgrwt>
</event>
<event>
 7    1  0.3565607E-009  0.8904472E+02  0.7818608E-02  0.1305182E+00
         -1   -1    0    0    0  501 -0.00000000000E+00  0.00000000000E+00  0.39015004942E+02  0.39015005267E+02  0.50400000000E-02 0.  1.
          1   -1    0    0  501    0  0.00000000000E+00 -0.00000000000E+00 -0.50807128652E+02  0.50807128902E+02  0.50400000000E-02 0. -1.
         23    2    1    2    0    0 -0.17763568394E-14  0.00000000000E+00 -0.11792123711E+02  0.89822134170E+02  0.89044716885E+02 0.  0.
    9000005    2    3    3    0    0  0.13873567806E+02  0.41022946228E+02  0.16662338876E+01  0.44473645880E+02  0.99885355097E+01 0.  0.
         22    1    3    3    0    0 -0.13873567806E+02 -0.41022946228E+02 -0.13458357598E+02  0.45348488289E+02  0.00000000000E+00 0. -1.
         22    1    4    4    0    0  0.49336950517E+01  0.54836556224E+01 -0.20041366396E+01  0.76438465133E+01  0.00000000000E+00 0.  1.
         22    1    4    4    0    0  0.89398727545E+01  0.35539290606E+02  0.36703705273E+01  0.36829799367E+02  0.00000000000E+00 0.  1.
<mgrwt>
<rscale>  0 0.89044717E+02</rscale>
<asrwt>0</asrwt>
<pdfrwt beam="2">  1        1 0.78164814E-02 0.89044717E+02</pdfrwt>
<pdfrwt beam="1">  1       -1 0.60023085E-02 0.89044717E+02</pdfrwt>
<totfact> 0.10039323E+05</totfact>
</mgrwt>
</event>
<event>
 7    1  0.3565607E-009  0.9017905E+02  0.7818608E-02  0.1302419E+00
         -1   -1    0    0    0  501 -0.00000000000E+00  0.00000000000E+00  0.10286857119E+03  0.10286857132E+03  0.50400000000E-02 0.  1.
          1   -1    0    0  501    0  0.00000000000E+00 -0.00000000000E+00 -0.19763714977E+02  0.19763715620E+02  0.50400000000E-02 0. -1.
         23    2    1    2    0    0  0.35527136788E-14  0.00000000000E+00  0.83104856217E+02  0.12263228694E+03  0.90179047858E+02 0.  0.
    9000005    2    3    3    0    0 -0.29771915890E+02  0.99209102875E+01  0.84471945612E+02  0.91221136527E+02  0.14177260567E+02 0.  0.
         22    1    3    3    0    0  0.29771915890E+02 -0.99209102875E+01 -0.13670893945E+01  0.31411150410E+02  0.00000000000E+00 0. -1.
         22    1    4    4    0    0 -0.18182399836E+02  0.63608140674E+01  0.31862522802E+02  0.37232780969E+02  0.00000000000E+00 0.  1.
         22    1    4    4    0    0 -0.11589516054E+02  0.35600962201E+01  0.52609422810E+02  0.53988355558E+02  0.00000000000E+00 0.  1.
<mgrwt>
<rscale>  0 0.90179048E+02</rscale>
<asrwt>0</asrwt>
<pdfrwt beam="2">  1        1 0.30405717E-02 0.90179048E+02</pdfrwt>
<pdfrwt beam="1">  1       -1 0.15825934E-01 0.90179048E+02</pdfrwt>
<totfact> 0.83266603E+04</totfact>
</mgrwt>
</event>
<event>
 7    1  0.3565607E-009  0.8983943E+02  0.7818608E-02  0.1303241E+00
         -1   -1    0    0    0  501 -0.00000000000E+00  0.00000000000E+00  0.79410698898E+02  0.79410699058E+02  0.50400000000E-02 0.  1.
          1   -1    0    0  501    0  0.00000000000E+00 -0.00000000000E+00 -0.25409431493E+02  0.25409431993E+02  0.50400000000E-02 0. -1.
         23    2    1    2    0    0  0.00000000000E+00  0.00000000000E+00  0.54001267406E+02  0.10482013105E+03  0.89839428939E+02 0.  0.
    9000005    2    3    3    0    0 -0.70538891905E+00  0.30292261615E+02 -0.11487522811E+02  0.32661276214E+02  0.40837600730E+01 0.  0.
         22    1    3    3    0    0  0.70538891905E+00 -0.30292261615E+02  0.65488790217E+02  0.72158854837E+02  0.00000000000E+00 0.  1.
         22    1    4    4    0    0 -0.20250362084E+01  0.20945672610E+02 -0.90871282505E+01  0.22921559121E+02  0.00000000000E+00 0.  1.
         22    1    4    4    0    0  0.13196472893E+01  0.93465890054E+01 -0.24003945606E+01  0.97397170929E+01  0.00000000000E+00 0.  1.
<mgrwt>
<rscale>  0 0.89839429E+02</rscale>
<asrwt>0</asrwt>
<pdfrwt beam="2">  1        1 0.39091434E-02 0.89839429E+02</pdfrwt>
<pdfrwt beam="1">  1       -1 0.12217031E-01 0.89839429E+02</pdfrwt>
<totfact> 0.88019738E+04</totfact>
</mgrwt>
</event>
<event>
 7    1  0.3565607E-009  0.9688021E+02  0.7818608E-02  0.1286997E+00
          1   -1    0    0  501    0  0.00000000000E+00  0.00000000000E+00  0.14590737249E+02  0.14590738119E+02  0.50400000000E-02 0. -1.
         -1   -1    0    0    0  501 -0.00000000000E+00 -0.00000000000E+00 -0.16081735140E+03  0.16081735148E+03  0.50400000000E-02 0.  1.
         23    2    1    2    0    0 -0.71054273576E-14  0.00000000000E+00 -0.14622661415E+03  0.17540808960E+03  0.96880210624E+02 0.  0.
    9000005    2    3    3    0    0 -0.46395236826E+02  0.12751910511E+02 -0.63925860400E+02  0.80074237847E+02  0.31997995459E+01 0.  0.
         22    1    3    3    0    0  0.46395236826E+02 -0.12751910511E+02 -0.82300753755E+02  0.95333851755E+02  0.00000000000E+00 0. -1.
         22    1    4    4    0    0 -0.24293885883E+02  0.50668430701E+01 -0.33537041837E+02  0.41720486157E+02  0.00000000000E+00 0. -1.
         22    1    4    4    0    0 -0.22101350942E+02  0.76850674408E+01 -0.30388818563E+02  0.38353751690E+02  0.00000000000E+00 0. -1.
<mgrwt>
<rscale>  0 0.96880211E+02</rscale>
<asrwt>0</asrwt>
<pdfrwt beam="1">  1        1 0.22447290E-02 0.96880211E+02</pdfrwt>
<pdfrwt beam="2">  1       -1 0.24741130E-01 0.96880211E+02</pdfrwt>
<totfact> 0.62801957E+04</totfact>
</mgrwt>
</event>
<event>
 7    1  0.3565607E-009  0.9282445E+02  0.7818608E-02  0.1296153E+00
          1   -1    0    0  501    0  0.00000000000E+00  0.00000000000E+00  0.88870818228E+02  0.88870818371E+02  0.50400000000E-02 0. -1.
         -1   -1    0    0    0  501 -0.00000000000E+00 -0.00000000000E+00 -0.24238492056E+02  0.24238492580E+02  0.50400000000E-02 0.  1.
         23    2    1    2    0    0  0.00000000000E+00  0.00000000000E+00  0.64632326172E+02  0.11310931095E+03  0.92824450644E+02 0.  0.
    9000005    2    3    3    0    0  0.12125892579E+02 -0.31693264279E+02 -0.40688692019E+01  0.36484546564E+02  0.12769736485E+02 0.  0.
         22    1    3    3    0    0 -0.12125892579E+02  0.31693264279E+02  0.68701195374E+02  0.76624764387E+02  0.00000000000E+00 0. -1.
         22    1    4    4    0    0  0.18062779463E+01 -0.18844443557E+02 -0.60780979520E+01  0.19882629799E+02  0.00000000000E+00 0. -1.
         22    1    4    4    0    0  0.10319614633E+02 -0.12848820722E+02  0.20092287501E+01  0.16601916765E+02  0.00000000000E+00 0. -1.
<mgrwt>
<rscale>  0 0.92824451E+02</rscale>
<asrwt>0</asrwt>
<pdfrwt beam="1">  1        1 0.13672433E-01 0.92824451E+02</pdfrwt>
<pdfrwt beam="2">  1       -1 0.37289989E-02 0.92824451E+02</pdfrwt>
<totfact> 0.97542183E+04</totfact>
</mgrwt>
</event>
<event>
 7    1  0.3565607E-009  0.9129812E+02  0.7818608E-02  0.1299738E+00
          1   -1    0    0  501    0  0.00000000000E+00  0.00000000000E+00  0.76027766307E+01  0.76027783012E+01  0.50400000000E-02 0. -1.
         -1   -1    0    0    0  501 -0.00000000000E+00 -0.00000000000E+00 -0.27408885328E+03  0.27408885332E+03  0.50400000000E-02 0.  1.
         23    2    1    2    0    0 -0.17763568394E-14  0.00000000000E+00 -0.26648607665E+03  0.28169163163E+03  0.91298117620E+02 0.  0.
    9000005    2    3    3    0    0 -0.12828506172E+02 -0.38527076331E+02 -0.72280130452E+02  0.83285846128E+02  0.79503915583E+01 0.  0.
         22    1    3    3    0    0  0.12828506172E+02  0.38527076331E+02 -0.19420594620E+03  0.19840578550E+03  0.00000000000E+00 0.  1.
         22    1    4    4    0    0 -0.57024994265E+01 -0.11047477087E+02 -0.16109479222E+02  0.20348969765E+02  0.00000000000E+00 0. -1.
         22    1    4    4    0    0 -0.71260067457E+01 -0.27479599243E+02 -0.56170651230E+02  0.62936876363E+02  0.00000000000E+00 0. -1.
<mgrwt>
<rscale>  0 0.91298118E+02</rscale>
<asrwt>0</asrwt>
<pdfrwt beam="1">  1        1 0.11696583E-02 0.91298118E+02</pdfrwt>
<pdfrwt beam="2">  1       -1 0.42167508E-01 0.91298118E+02</pdfrwt>
<totfact> 0.62481853E+04</totfact>
</mgrwt>
</event>
<event>
 7    1  0.3565607E-009  0.8993690E+02  0.7818608E-02  0.1303005E+00
          1   -1    0    0  501    0  0.00000000000E+00  0.00000000000E+00  0.18642868720E+03  0.18642868727E+03  0.50400000000E-02 0. -1.
         -1   -1    0    0    0  501 -0.00000000000E+00 -0.00000000000E+00 -0.10846835198E+02  0.10846836369E+02  0.50400000000E-02 0.  1.
         23    2    1    2    0    0  0.00000000000E+00  0.00000000000E+00  0.17558185200E+03  0.19727552364E+03  0.89936897178E+02 0.  0.
    9000005    2    3    3    0    0 -0.25911179178E+02 -0.19083012225E+02  0.24415410846E+02  0.42721832340E+02  0.13910144131E+02 0.  0.
         22    1    3    3    0    0  0.25911179178E+02  0.19083012225E+02  0.15116644116E+03  0.15455369130E+03  0.00000000000E+00 0. -1.
         22    1    4    4    0    0 -0.24501041831E+02 -0.11238943412E+02  0.20351449551E+02  0.33775677619E+02  0.00000000000E+00 0.  1.
         22    1    4    4    0    0 -0.14101373474E+01 -0.78440688131E+01  0.40639612956E+01  0.89461547212E+01  0.00000000000E+00 0.  1.
<mgrwt>
<rscale>  0 0.89936897E+02</rscale>
<asrwt>0</asrwt>
<pdfrwt beam="1">  1        1 0.28681333E-01 0.89936897E+02</pdfrwt>
<pdfrwt beam="2">  1       -1 0.16687442E-02 0.89936897E+02</pdfrwt>
<totfact> 0.12117853E+05</totfact>
</mgrwt>
</event>
<event>
 7    1  0.3565607E-009  0.1020779E+03  0.7818608E-02  0.1275986E+00
         -1   -1    0    0    0  501 -0.00000000000E+00  0.00000000000E+00  0.23608564796E+02  0.23608565334E+02  0.50400000000E-02 0.  1.
          1   -1    0    0  501    0  0.00000000000E+00 -0.00000000000E+00 -0.11034016136E+03  0.11034016148E+03  0.50400000000E-02 0. -1.
         23    2    1    2    0    0  0.35527136788E-14  0.00000000000E+00 -0.86731596568E+02  0.13394872681E+03  0.10207787014E+03 0.  0.
    9000005    2    3    3    0    0  0.24607608503E+02 -0.15258326516E+02  0.11247179887E+02  0.31781258605E+02  0.67229769293E+01 0.  0.
         22    1    3    3    0    0 -0.24607608503E+02  0.15258326516E+02 -0.97978776456E+02  0.10216746821E+03  0.00000000000E+00 0. -1.
         22    1    4    4    0    0  0.42962947329E+01 -0.34643399637E+01  0.50724706662E+01  0.74959828225E+01  0.00000000000E+00 0. -1.
         22    1    4    4    0    0  0.20311313770E+02 -0.11793986553E+02  0.61747092211E+01  0.24285275783E+02  0.00000000000E+00 0. -1.
<mgrwt>
<rscale>  0 0.10207787E+03</rscale>
<asrwt>0</asrwt>
<pdfrwt beam="2">  1        1 0.16975409E-01 0.10207787E+03</pdfrwt>
<pdfrwt beam="1">  1       -1 0.36320870E-02 0.10207787E+03</pdfrwt>
<totfact> 0.77933332E+04</totfact>
</mgrwt>
</event>
<event>
 7    1  0.3976447E-009  0.9008783E+02  0.7818608E-02  0.1302639E+00
         -1   -1    0    0    0  501 -0.00000000000E+00  0.00000000000E+00  0.59546137029E+02  0.59546137242E+02  0.50400000000E-02 0.  1.
          1   -1    0    0  501    0  0.00000000000E+00 -0.00000000000E+00 -0.34073652081E+02  0.34073652454E+02  0.50400000000E-02 0. -1.
         23    2    1    2    0    0  0.00000000000E+00  0.35527136788E-14  0.25472484947E+02  0.93619789696E+02  0.90087832327E+02 0.  0.
    9000005    2    3    3    0    0  0.11560985604E+02  0.24711331846E+02 -0.22794042910E+02  0.38176449058E+02  0.13912820013E+02 0.  0.
         22    1    3    3    0    0 -0.11560985604E+02 -0.24711331846E+02  0.48266527857E+02  0.55443340639E+02  0.00000000000E+00 0.  1.
         22    1    4    4    0    0  0.87425377217E-01  0.41972306967E+00 -0.69992368104E+01  0.70123552805E+01  0.00000000000E+00 0. -1.
         22    1    4    4    0    0  0.11473560227E+02  0.24291608777E+02 -0.15794806100E+02  0.31164093777E+02  0.00000000000E+00 0. -1.
<mgrwt>
<rscale>  0 0.90087832E+02</rscale>
<asrwt>0</asrwt>
<pdfrwt beam="2">  1        1 0.52421004E-02 0.90087832E+02</pdfrwt>
<pdfrwt beam="1">  1       -1 0.91609442E-02 0.90087832E+02</pdfrwt>
<totfact> 0.91528655E+04</totfact>
</mgrwt>
</event>
<event>
 7    1  0.3565607E-009  0.9225821E+02  0.7818608E-02  0.1297473E+00
          1   -1    0    0  501    0  0.00000000000E+00  0.00000000000E+00  0.10808701958E+03  0.10808701969E+03  0.50400000000E-02 0. -1.
         -1   -1    0    0    0  501 -0.00000000000E+00 -0.00000000000E+00 -0.19686860587E+02  0.19686861232E+02  0.50400000000E-02 0.  1.
         23    2    1    2    0    0  0.00000000000E+00  0.00000000000E+00  0.88400158989E+02  0.12777388092E+03  0.92258205800E+02 0.  0.
    9000005    2    3    3    0    0  0.16421873053E+02  0.40934449099E+02  0.56717493745E+02  0.73468279790E+02  0.15342978885E+02 0.  0.
         22    1    3    3    0    0 -0.16421873053E+02 -0.40934449099E+02  0.31682665244E+02  0.54305601135E+02  0.00000000000E+00 0.  1.
         22    1    4    4    0    0  0.17997082795E+02  0.36032549800E+02  0.43498860946E+02  0.59282295315E+02  0.00000000000E+00 0. -1.
         22    1    4    4    0    0 -0.15752097414E+01  0.49018992989E+01  0.13218632799E+02  0.14185984475E+02  0.00000000000E+00 0. -1.
<mgrwt>
<rscale>  0 0.92258206E+02</rscale>
<asrwt>0</asrwt>
<pdfrwt beam="1">  1        1 0.16628772E-01 0.92258206E+02</pdfrwt>
<pdfrwt beam="2">  1       -1 0.30287479E-02 0.92258206E+02</pdfrwt>
<totfact> 0.10247857E+05</totfact>
</mgrwt>
</event>
<event>
 7    1  0.3565607E-009  0.8987050E+02  0.7818608E-02  0.1303166E+00
          1   -1    0    0  501    0  0.00000000000E+00  0.00000000000E+00  0.93712900680E+02  0.93712900815E+02  0.50400000000E-02 0. -1.
         -1   -1    0    0    0  501 -0.00000000000E+00 -0.00000000000E+00 -0.21546409746E+02  0.21546410336E+02  0.50400000000E-02 0.  1.
         23    2    1    2    0    0  0.00000000000E+00  0.00000000000E+00  0.72166490934E+02  0.11525931115E+03  0.89870497903E+02 0.  0.
    9000005    2    3    3    0    0  0.27412404640E+02 -0.31170541334E+02  0.55333711406E+02  0.70466621549E+02  0.13441821279E+02 0.  0.
         22    1    3    3    0    0 -0.27412404640E+02  0.31170541334E+02  0.16832779527E+02  0.44792689602E+02  0.00000000000E+00 0.  1.
         22    1    4    4    0    0  0.26902625525E+02 -0.24908581082E+02  0.51094571985E+02  0.62887550103E+02  0.00000000000E+00 0.  1.
         22    1    4    4    0    0  0.50977911477E+00 -0.62619602516E+01  0.42391394212E+01  0.75790714452E+01  0.00000000000E+00 0.  1.
<mgrwt>
<rscale>  0 0.89870498E+02</rscale>
<asrwt>0</asrwt>
<pdfrwt beam="1">  1        1 0.14417369E-01 0.89870498E+02</pdfrwt>
<pdfrwt beam="2">  1       -1 0.33148323E-02 0.89870498E+02</pdfrwt>
<totfact> 0.10748605E+05</totfact>
</mgrwt>
</event>
<event>
 7    1  0.3565607E-009  0.9339919E+02  0.7818608E-02  0.1294823E+00
          1   -1    0    0  501    0  0.00000000000E+00  0.00000000000E+00  0.10248539726E+03  0.10248539739E+03  0.50400000000E-02 0. -1.
         -1   -1    0    0    0  501 -0.00000000000E+00 -0.00000000000E+00 -0.21279639639E+02  0.21279640236E+02  0.50400000000E-02 0.  1.
         23    2    1    2    0    0  0.00000000000E+00  0.00000000000E+00  0.81205757623E+02  0.12376503762E+03  0.93399194141E+02 0.  0.
    9000005    2    3    3    0    0 -0.41997177086E+01  0.10021610594E+02  0.10063793578E+03  0.10150116878E+03  0.75115136698E+01 0.  0.
         22    1    3    3    0    0  0.41997177086E+01 -0.10021610594E+02 -0.19432178159E+02  0.22263868841E+02  0.00000000000E+00 0.  1.
         22    1    4    4    0    0 -0.50298348545E+01  0.39643565516E+01  0.35167669648E+02  0.35746053628E+02  0.00000000000E+00 0. -1.
         22    1    4    4    0    0  0.83011714589E+00  0.60572540428E+01  0.65470266134E+02  0.65755115152E+02  0.00000000000E+00 0. -1.
<mgrwt>
<rscale>  0 0.93399194E+02</rscale>
<asrwt>0</asrwt>
<pdfrwt beam="1">  1        1 0.15766984E-01 0.93399194E+02</pdfrwt>
<pdfrwt beam="2">  1       -1 0.32737908E-02 0.93399194E+02</pdfrwt>
<totfact> 0.98204916E+04</totfact>
</mgrwt>
</event>
<event>
 7    1  0.3565607E-009  0.9293364E+02  0.7818608E-02  0.1295899E+00
          1   -1    0    0  501    0  0.00000000000E+00  0.00000000000E+00  0.17652372286E+02  0.17652373006E+02  0.50400000000E-02 0. -1.
         -1   -1    0    0    0  501 -0.00000000000E+00 -0.00000000000E+00 -0.12231587812E+03  0.12231587822E+03  0.50400000000E-02 0.  1.
         23    2    1    2    0    0  0.00000000000E+00  0.00000000000E+00 -0.10466350583E+03  0.13996825123E+03  0.92933642447E+02 0.  0.
    9000005    2    3    3    0    0 -0.28070323992E+02  0.28935028260E+02 -0.85378808560E+02  0.95279566995E+02  0.12785772807E+02 0.  0.
         22    1    3    3    0    0  0.28070323992E+02 -0.28935028260E+02 -0.19284697269E+02  0.44688684230E+02  0.00000000000E+00 0. -1.
         22    1    4    4    0    0 -0.68142712937E+01  0.55706488501E+01 -0.88181184535E+01  0.12458958020E+02  0.00000000000E+00 0. -1.
         22    1    4    4    0    0 -0.21256052698E+02  0.23364379410E+02 -0.76560690106E+02  0.82820608976E+02  0.00000000000E+00 0. -1.
<mgrwt>
<rscale>  0 0.92933642E+02</rscale>
<asrwt>0</asrwt>
<pdfrwt beam="1">  1        1 0.27157497E-02 0.92933642E+02</pdfrwt>
<pdfrwt beam="2">  1       -1 0.18817827E-01 0.92933642E+02</pdfrwt>
<totfact> 0.74450670E+04</totfact>
</mgrwt>
</event>
<event>
 7    1  0.3565607E-009  0.9215119E+02  0.7818608E-02  0.1297724E+00
          1   -1    0    0  501    0  0.00000000000E+00  0.00000000000E+00  0.10530440506E+02  0.10530441712E+02  0.50400000000E-02 0. -1.
         -1   -1    0    0    0  501 -0.00000000000E+00 -0.00000000000E+00 -0.20160224235E+03  0.20160224242E+03  0.50400000000E-02 0.  1.
         23    2    1    2    0    0 -0.88817841970E-15  0.00000000000E+00 -0.19107180185E+03  0.21213268413E+03  0.92151192149E+02 0.  0.
    9000005    2    3    3    0    0  0.48316796280E+01  0.28295315263E+02 -0.17829139325E+03  0.18071121316E+03  0.66896682627E+01 0.  0.
         22    1    3    3    0    0 -0.48316796280E+01 -0.28295315263E+02 -0.12780408599E+02  0.31421470968E+02  0.00000000000E+00 0. -1.
         22    1    4    4    0    0  0.30504837754E+01  0.22817459101E+02 -0.12432807987E+03  0.12644134346E+03  0.00000000000E+00 0. -1.
         22    1    4    4    0    0  0.17811958525E+01  0.54778561624E+01 -0.53963313380E+02  0.54269869705E+02  0.00000000000E+00 0. -1.
<mgrwt>
<rscale>  0 0.92151192E+02</rscale>
<asrwt>0</asrwt>
<pdfrwt beam="1">  1        1 0.16200680E-02 0.92151192E+02</pdfrwt>
<pdfrwt beam="2">  1       -1 0.31015727E-01 0.92151192E+02</pdfrwt>
<totfact> 0.67371524E+04</totfact>
</mgrwt>
</event>
<event>
 7    1  0.3565607E-009  0.8648578E+02  0.7818608E-02  0.1311592E+00
         -1   -1    0    0    0  501 -0.00000000000E+00  0.00000000000E+00  0.21987136153E+02  0.21987136730E+02  0.50400000000E-02 0.  1.
          1   -1    0    0  501    0  0.00000000000E+00 -0.00000000000E+00 -0.85047343594E+02  0.85047343743E+02  0.50400000000E-02 0. -1.
         23    2    1    2    0    0  0.00000000000E+00  0.22204460493E-15 -0.63060207441E+02  0.10703448047E+03  0.86485780610E+02 0.  0.
    9000005    2    3    3    0    0  0.13643280785E+02 -0.78932253641E+00  0.16753209653E+02  0.26059523302E+02  0.14548765596E+02 0.  0.
         22    1    3    3    0    0 -0.13643280785E+02  0.78932253641E+00 -0.79813417094E+02  0.80974957172E+02  0.00000000000E+00 0. -1.
         22    1    4    4    0    0  0.67869014928E+01  0.68284493451E+01  0.69219451086E+01  0.11857616810E+02  0.00000000000E+00 0.  1.
         22    1    4    4    0    0  0.68563792925E+01 -0.76177718815E+01  0.98312645448E+01  0.14201906491E+02  0.00000000000E+00 0.  1.
<mgrwt>
<rscale>  0 0.86485781E+02</rscale>
<asrwt>0</asrwt>
<pdfrwt beam="2">  1        1 0.13084207E-01 0.86485781E+02</pdfrwt>
<pdfrwt beam="1">  1       -1 0.33826364E-02 0.86485781E+02</pdfrwt>
<totfact> 0.11749253E+05</totfact>
</mgrwt>
</event>
<event>
 7    1  0.3565607E-009  0.9139054E+02  0.7818608E-02  0.1299519E+00
          1   -1    0    0  501    0  0.00000000000E+00  0.00000000000E+00  0.28649776190E+02  0.28649776633E+02  0.50400000000E-02 0. -1.
         -1   -1    0    0    0  501 -0.00000000000E+00 -0.00000000000E+00 -0.72882162803E+02  0.72882162977E+02  0.50400000000E-02 0.  1.
         23    2    1    2    0    0 -0.17763568394E-14  0.00000000000E+00 -0.44232386612E+02  0.10153193961E+03  0.91390539639E+02 0.  0.
    9000005    2    3    3    0    0  0.11658196018E+02  0.24397541994E+02 -0.62177066926E+02  0.69079433678E+02  0.13222212979E+02 0.  0.
         22    1    3    3    0    0 -0.11658196018E+02 -0.24397541994E+02  0.17944680313E+02  0.32452505932E+02  0.00000000000E+00 0. -1.
         22    1    4    4    0    0  0.11493176979E+02  0.12717937957E+02 -0.26700904329E+02  0.31729755040E+02  0.00000000000E+00 0.  1.
         22    1    4    4    0    0  0.16501903944E+00  0.11679604037E+02 -0.35476162597E+02  0.37349678638E+02  0.00000000000E+00 0.  1.
<mgrwt>
<rscale>  0 0.91390540E+02</rscale>
<asrwt>0</asrwt>
<pdfrwt beam="1">  1        1 0.44076580E-02 0.91390540E+02</pdfrwt>
<pdfrwt beam="2">  1       -1 0.11212640E-01 0.91390540E+02</pdfrwt>
<totfact> 0.85460124E+04</totfact>
</mgrwt>
</event>
<event>
 7    1  0.3565607E-009  0.9246593E+02  0.7818608E-02  0.1296988E+00
          1   -1    0    0  501    0  0.00000000000E+00  0.00000000000E+00  0.92087533471E+02  0.92087533609E+02  0.50400000000E-02 0. -1.
         -1   -1    0    0    0  501 -0.00000000000E+00 -0.00000000000E+00 -0.23211467730E+02  0.23211468277E+02  0.50400000000E-02 0.  1.
         23    2    1    2    0    0 -0.71054273576E-14 -0.35527136788E-14  0.68876065741E+02  0.11529900189E+03  0.92465925637E+02 0.  0.
    9000005    2    3    3    0    0 -0.32453194574E+02 -0.22063489720E+02  0.65778335943E+01  0.41671037461E+02  0.12377400842E+02 0.  0.
         22    1    3    3    0    0  0.32453194574E+02  0.22063489720E+02  0.62298232147E+02  0.73627964425E+02  0.00000000000E+00 0. -1.
         22    1    4    4    0    0 -0.23486551526E+02 -0.11025683320E+02 -0.13327071206E+00  0.25946127964E+02  0.00000000000E+00 0.  1.
         22    1    4    4    0    0 -0.89666430481E+01 -0.11037806400E+02  0.67111043064E+01  0.15724909497E+02  0.00000000000E+00 0.  1.
<mgrwt>
<rscale>  0 0.92465926E+02</rscale>
<asrwt>0</asrwt>
<pdfrwt beam="1">  1        1 0.14167313E-01 0.92465926E+02</pdfrwt>
<pdfrwt beam="2">  1       -1 0.35709951E-02 0.92465926E+02</pdfrwt>
<totfact> 0.99158380E+04</totfact>
</mgrwt>
</event>
<event>
 7    1  0.3565607E-009  0.9141562E+02  0.7818608E-02  0.1299459E+00
         -1   -1    0    0    0  501 -0.00000000000E+00  0.00000000000E+00  0.44357938009E+01  0.44357966642E+01  0.50400000000E-02 0.  1.
          1   -1    0    0  501    0  0.00000000000E+00 -0.00000000000E+00 -0.47098749679E+03  0.47098749681E+03  0.50400000000E-02 0. -1.
         23    2    1    2    0    0  0.00000000000E+00  0.00000000000E+00 -0.46655170298E+03  0.47542329348E+03  0.91415624607E+02 0.  0.
    9000005    2    3    3    0    0  0.23029386580E+02 -0.38156344857E+02 -0.24959230759E+03  0.25393370332E+03  0.14133165715E+02 0.  0.
         22    1    3    3    0    0 -0.23029386580E+02  0.38156344857E+02 -0.21695939539E+03  0.22148959016E+03  0.00000000000E+00 0.  1.
         22    1    4    4    0    0  0.24658605578E+02 -0.32080255938E+02 -0.21523837098E+03  0.21900855233E+03  0.00000000000E+00 0.  1.
         22    1    4    4    0    0 -0.16292189982E+01 -0.60760889192E+01 -0.34353936610E+02  0.34925150991E+02  0.00000000000E+00 0.  1.
<mgrwt>
<rscale>  0 0.91415625E+02</rscale>
<asrwt>0</asrwt>
<pdfrwt beam="2">  1        1 0.72459576E-01 0.91415625E+02</pdfrwt>
<pdfrwt beam="1">  1       -1 0.68243041E-03 0.91415625E+02</pdfrwt>
<totfact> 0.13726777E+05</totfact>
</mgrwt>
</event>
<event>
 7    1  0.3565607E-009  0.9195862E+02  0.7818608E-02  0.1298177E+00
         -1   -1    0    0    0  501 -0.00000000000E+00  0.00000000000E+00  0.15229105902E+03  0.15229105910E+03  0.50400000000E-02 0.  1.
          1   -1    0    0  501    0  0.00000000000E+00 -0.00000000000E+00 -0.13881949511E+02  0.13881950426E+02  0.50400000000E-02 0. -1.
         23    2    1    2    0    0  0.00000000000E+00  0.30531133177E-15  0.13840910951E+03  0.16617300953E+03  0.91958618416E+02 0.  0.
    9000005    2    3    3    0    0  0.39162529395E+02  0.65752619954E-01  0.29120181456E+02  0.50079177535E+02  0.11235258010E+02 0.  0.
         22    1    3    3    0    0 -0.39162529395E+02 -0.65752619954E-01  0.10928892805E+03  0.11609383200E+03  0.00000000000E+00 0.  1.
         22    1    4    4    0    0  0.13135593617E+02  0.32564380976E+01  0.49289019805E+01  0.14402856783E+02  0.00000000000E+00 0.  1.
         22    1    4    4    0    0  0.26026935778E+02 -0.31906854776E+01  0.24191279475E+02  0.35676320753E+02  0.00000000000E+00 0.  1.
<mgrwt>
<rscale>  0 0.91958618E+02</rscale>
<asrwt>0</asrwt>
<pdfrwt beam="2">  1        1 0.21356847E-02 0.91958618E+02</pdfrwt>
<pdfrwt beam="1">  1       -1 0.23429393E-01 0.91958618E+02</pdfrwt>
<totfact> 0.72886782E+04</totfact>
</mgrwt>
</event>
<event>
 7    1  0.3565607E-009  0.8619116E+02  0.7818608E-02  0.1312347E+00
          1   -1    0    0  501    0  0.00000000000E+00  0.00000000000E+00  0.95956098036E+02  0.95956098168E+02  0.50400000000E-02 0. -1.
         -1   -1    0    0    0  501 -0.00000000000E+00 -0.00000000000E+00 -0.19354986689E+02  0.19354987345E+02  0.50400000000E-02 0.  1.
         23    2    1    2    0    0  0.00000000000E+00 -0.35527136788E-14  0.76601111347E+02  0.11531108551E+03  0.86191160699E+02 0.  0.
    9000005    2    3    3    0    0 -0.25579095677E+02 -0.22560902442E+02  0.64035432052E+01  0.37266335352E+02  0.13582707034E+02 0.  0.
         22    1    3    3    0    0  0.25579095677E+02  0.22560902442E+02  0.70197568142E+02  0.78044750161E+02  0.00000000000E+00 0. -1.
         22    1    4    4    0    0 -0.14586813301E+02 -0.11975140104E+02 -0.33321521442E+01  0.19164611677E+02  0.00000000000E+00 0. -1.
         22    1    4    4    0    0 -0.10992282375E+02 -0.10585762338E+02  0.97356953494E+01  0.18101723676E+02  0.00000000000E+00 0. -1.
<mgrwt>
<rscale>  0 0.86191161E+02</rscale>
<asrwt>0</asrwt>
<pdfrwt beam="1">  1        1 0.14762477E-01 0.86191161E+02</pdfrwt>
<pdfrwt beam="2">  1       -1 0.29776904E-02 0.86191161E+02</pdfrwt>
<totfact> 0.12086762E+05</totfact>
</mgrwt>
</event>
<event>
 7    1  0.3565607E-009  0.9254550E+02  0.7818608E-02  0.1296802E+00
         -1   -1    0    0    0  501 -0.00000000000E+00  0.00000000000E+00  0.72284547431E+02  0.72284547607E+02  0.50400000000E-02 0.  1.
          1   -1    0    0  501    0  0.00000000000E+00 -0.00000000000E+00 -0.29621373363E+02  0.29621373792E+02  0.50400000000E-02 0. -1.
         23    2    1    2    0    0  0.00000000000E+00  0.35527136788E-14  0.42663174068E+02  0.10190592140E+03  0.92545504453E+02 0.  0.
    9000005    2    3    3    0    0 -0.50428597295E+01  0.29437490458E+02  0.59875326811E+02  0.67434854099E+02  0.83909777701E+01 0.  0.
         22    1    3    3    0    0  0.50428597295E+01 -0.29437490458E+02 -0.17212152743E+02  0.34471067299E+02  0.00000000000E+00 0. -1.
         22    1    4    4    0    0 -0.66458212608E+01  0.14065728355E+02  0.29145594176E+02  0.33037513742E+02  0.00000000000E+00 0. -1.
         22    1    4    4    0    0  0.16029615314E+01  0.15371762103E+02  0.30729732635E+02  0.34397340357E+02  0.00000000000E+00 0. -1.
<mgrwt>
<rscale>  0 0.92545504E+02</rscale>
<asrwt>0</asrwt>
<pdfrwt beam="2">  1        1 0.45571345E-02 0.92545504E+02</pdfrwt>
<pdfrwt beam="1">  1       -1 0.11120699E-01 0.92545504E+02</pdfrwt>
<totfact> 0.82873137E+04</totfact>
</mgrwt>
</event>
<event>
 7    1  0.3565607E-009  0.9047446E+02  0.7818608E-02  0.1301707E+00
          1   -1    0    0  501    0  0.00000000000E+00  0.00000000000E+00  0.71146146491E+02  0.71146146669E+02  0.50400000000E-02 0. -1.
         -1   -1    0    0    0  501 -0.00000000000E+00 -0.00000000000E+00 -0.28763428730E+02  0.28763429171E+02  0.50400000000E-02 0.  1.
         23    2    1    2    0    0  0.00000000000E+00 -0.35527136788E-14  0.42382717761E+02  0.99909575841E+02  0.90474463689E+02 0.  0.
    9000005    2    3    3    0    0 -0.23162183283E+02  0.22103560149E+02  0.56406575802E+02  0.64956425767E+02  0.35470197478E+01 0.  0.
         22    1    3    3    0    0  0.23162183283E+02 -0.22103560149E+02 -0.14023858040E+02  0.34953150073E+02  0.00000000000E+00 0.  1.
         22    1    4    4    0    0 -0.95181744281E+01  0.79905058791E+01  0.25027209012E+02  0.27942888533E+02  0.00000000000E+00 0.  1.
         22    1    4    4    0    0 -0.13644008855E+02  0.14113054270E+02  0.31379366790E+02  0.37013537234E+02  0.00000000000E+00 0.  1.
<mgrwt>
<rscale>  0 0.90474464E+02</rscale>
<asrwt>0</asrwt>
<pdfrwt beam="1">  1        1 0.10945561E-01 0.90474464E+02</pdfrwt>
<pdfrwt beam="2">  1       -1 0.44251429E-02 0.90474464E+02</pdfrwt>
<totfact> 0.10104346E+05</totfact>
</mgrwt>
</event>
<event>
 7    1  0.3565607E-009  0.1073629E+03  0.7818608E-02  0.1265533E+00
         -1   -1    0    0    0  501 -0.00000000000E+00  0.00000000000E+00  0.69445684466E+01  0.69445702755E+01  0.50400000000E-02 0.  1.
          1   -1    0    0  501    0  0.00000000000E+00 -0.00000000000E+00 -0.41495688591E+03  0.41495688594E+03  0.50400000000E-02 0. -1.
         23    2    1    2    0    0  0.00000000000E+00  0.00000000000E+00 -0.40801231746E+03  0.42190145621E+03  0.10736287792E+03 0.  0.
    9000005    2    3    3    0    0  0.34179171395E+02  0.37825549495E+02 -0.25931219707E+03  0.26470503846E+03  0.15064988632E+02 0.  0.
         22    1    3    3    0    0 -0.34179171395E+02 -0.37825549495E+02 -0.14870012039E+03  0.15719641776E+03  0.00000000000E+00 0.  1.
         22    1    4    4    0    0  0.34693223095E+02  0.31988546849E+02 -0.23560610208E+03  0.24028550143E+03  0.00000000000E+00 0.  1.
         22    1    4    4    0    0 -0.51405170036E+00  0.58370026463E+01 -0.23706094986E+02  0.24419537025E+02  0.00000000000E+00 0.  1.
<mgrwt>
<rscale>  0 0.10736288E+03</rscale>
<asrwt>0</asrwt>
<pdfrwt beam="2">  1        1 0.63839502E-01 0.10736288E+03</pdfrwt>
<pdfrwt beam="1">  1       -1 0.10683956E-02 0.10736288E+03</pdfrwt>
<totfact> 0.87618507E+04</totfact>
</mgrwt>
</event>
<event>
 7    1  0.3565607E-009  0.7410972E+02  0.7818608E-02  0.1346650E+00
          1   -1    0    0  501    0  0.00000000000E+00  0.00000000000E+00  0.89719140487E+02  0.89719140628E+02  0.50400000000E-02 0. -1.
         -1   -1    0    0    0  501 -0.00000000000E+00 -0.00000000000E+00 -0.15304011385E+02  0.15304012215E+02  0.50400000000E-02 0.  1.
         23    2    1    2    0    0  0.00000000000E+00  0.00000000000E+00  0.74415129102E+02  0.10502315284E+03  0.74109724016E+02 0.  0.
    9000005    2    3    3    0    0  0.25768471789E+02 -0.24125261332E+02  0.41343310455E+02  0.56651802218E+02  0.15940984992E+02 0.  0.
         22    1    3    3    0    0 -0.25768471789E+02  0.24125261332E+02  0.33071818647E+02  0.48371350625E+02  0.00000000000E+00 0.  1.
         22    1    4    4    0    0  0.75051631825E+01 -0.11169604073E+02  0.26692641195E+02  0.29892885835E+02  0.00000000000E+00 0.  1.
         22    1    4    4    0    0  0.18263308606E+02 -0.12955657259E+02  0.14650669260E+02  0.26758916384E+02  0.00000000000E+00 0.  1.
<mgrwt>
<rscale>  0 0.74109724E+02</rscale>
<asrwt>0</asrwt>
<pdfrwt beam="1">  1        1 0.13802945E-01 0.74109724E+02</pdfrwt>
<pdfrwt beam="2">  1       -1 0.23544634E-02 0.74109724E+02</pdfrwt>
<totfact> 0.17943110E+05</totfact>
</mgrwt>
</event>
<event>
 7    1  0.3565607E-009  0.9305411E+02  0.7818608E-02  0.1295620E+00
         -1   -1    0    0    0  501 -0.00000000000E+00  0.00000000000E+00  0.82492511906E+01  0.82492527303E+01  0.50400000000E-02 0.  1.
          1   -1    0    0  501    0  0.00000000000E+00 -0.00000000000E+00 -0.26241975678E+03  0.26241975683E+03  0.50400000000E-02 0. -1.
         23    2    1    2    0    0  0.00000000000E+00  0.00000000000E+00 -0.25417050559E+03  0.27066900956E+03  0.93054106970E+02 0.  0.
    9000005    2    3    3    0    0 -0.12998614798E+02 -0.25254637377E+02 -0.23353271943E+03  0.23555948217E+03  0.11999079209E+02 0.  0.
         22    1    3    3    0    0  0.12998614798E+02  0.25254637377E+02 -0.20637786161E+02  0.35109527387E+02  0.00000000000E+00 0.  1.
         22    1    4    4    0    0 -0.14798137715E+02 -0.20321207176E+02 -0.17576646934E+03  0.17755502833E+03  0.00000000000E+00 0.  1.
         22    1    4    4    0    0  0.17995229168E+01 -0.49334302005E+01 -0.57766250089E+02  0.58004453843E+02  0.00000000000E+00 0.  1.
<mgrwt>
<rscale>  0 0.93054107E+02</rscale>
<asrwt>0</asrwt>
<pdfrwt beam="2">  1        1 0.40372264E-01 0.93054107E+02</pdfrwt>
<pdfrwt beam="1">  1       -1 0.12691159E-02 0.93054107E+02</pdfrwt>
<totfact> 0.11822395E+05</totfact>
</mgrwt>
</event>
<event>
 7    1  0.3565607E-009  0.9099847E+02  0.7818608E-02  0.1300452E+00
          1   -1    0    0  501    0  0.00000000000E+00  0.00000000000E+00  0.10710460887E+02  0.10710462073E+02  0.50400000000E-02 0. -1.
         -1   -1    0    0    0  501 -0.00000000000E+00 -0.00000000000E+00 -0.19328583376E+03  0.19328583383E+03  0.50400000000E-02 0.  1.
         23    2    1    2    0    0  0.00000000000E+00  0.00000000000E+00 -0.18257537287E+03  0.20399629590E+03  0.90998472299E+02 0.  0.
    9000005    2    3    3    0    0 -0.12222917479E+02 -0.33438412515E+02 -0.15452595865E+03  0.15867194503E+03  0.55666058687E+01 0.  0.
         22    1    3    3    0    0  0.12222917479E+02  0.33438412515E+02 -0.28049414227E+02  0.45324350869E+02  0.00000000000E+00 0. -1.
         22    1    4    4    0    0 -0.12478337548E+01 -0.95875328371E+01 -0.47350296426E+02  0.48327305394E+02  0.00000000000E+00 0. -1.
         22    1    4    4    0    0 -0.10975083725E+02 -0.23850879678E+02 -0.10717566222E+03  0.11034463964E+03  0.00000000000E+00 0. -1.
<mgrwt>
<rscale>  0 0.90998472E+02</rscale>
<asrwt>0</asrwt>
<pdfrwt beam="1">  1        1 0.16477635E-02 0.90998472E+02</pdfrwt>
<pdfrwt beam="2">  1       -1 0.29736280E-01 0.90998472E+02</pdfrwt>
<totfact> 0.70456262E+04</totfact>
</mgrwt>
</event>
<event>
 7    1  0.3565607E-009  0.9223438E+02  0.7818608E-02  0.1297529E+00
         -1   -1    0    0    0  501 -0.00000000000E+00  0.00000000000E+00  0.22203305603E+02  0.22203306176E+02  0.50400000000E-02 0.  1.
          1   -1    0    0  501    0  0.00000000000E+00 -0.00000000000E+00 -0.95787326558E+02  0.95787326691E+02  0.50400000000E-02 0. -1.
         23    2    1    2    0    0  0.71054273576E-14  0.00000000000E+00 -0.73584020955E+02  0.11799063287E+03  0.92234382441E+02 0.  0.
    9000005    2    3    3    0    0 -0.40213601464E+02 -0.19555288057E+02 -0.23654043524E+02  0.50964177791E+02  0.61879406275E+01 0.  0.
         22    1    3    3    0    0  0.40213601464E+02  0.19555288057E+02 -0.49929977430E+02  0.67026455075E+02  0.00000000000E+00 0.  1.
         22    1    4    4    0    0 -0.10933647177E+02 -0.24431582805E+01 -0.66184269894E+01  0.13012195771E+02  0.00000000000E+00 0. -1.
         22    1    4    4    0    0 -0.29279954287E+02 -0.17112129776E+02 -0.17035616535E+02  0.37951982020E+02  0.00000000000E+00 0. -1.
<mgrwt>
<rscale>  0 0.92234382E+02</rscale>
<asrwt>0</asrwt>
<pdfrwt beam="2">  1        1 0.14736512E-01 0.92234382E+02</pdfrwt>
<pdfrwt beam="1">  1       -1 0.34158933E-02 0.92234382E+02</pdfrwt>
<totfact> 0.10049184E+05</totfact>
</mgrwt>
</event>
<event>
 7    1  0.3952140E-009  0.9688263E+02  0.7818608E-02  0.1286991E+00
          1   -1    0    0  501    0  0.00000000000E+00  0.00000000000E+00  0.27356563598E+03  0.27356563603E+03  0.50400000000E-02 0. -1.
         -1   -1    0    0    0  501 -0.00000000000E+00 -0.00000000000E+00 -0.85776887137E+01  0.85776901944E+01  0.50400000000E-02 0.  1.
         23    2    1    2    0    0  0.35527136788E-14  0.00000000000E+00  0.26498794727E+03  0.28214332623E+03  0.96882631749E+02 0.  0.
    9000005    2    3    3    0    0  0.30624558874E+02  0.23043231725E+02  0.21634717385E+03  0.22021773399E+03  0.14862590525E+02 0.  0.
         22    1    3    3    0    0 -0.30624558874E+02 -0.23043231725E+02  0.48640773424E+02  0.61925592237E+02  0.00000000000E+00 0.  1.
         22    1    4    4    0    0  0.61486369420E+01  0.13452174502E+02  0.74050745054E+02  0.75513439719E+02  0.00000000000E+00 0.  1.
         22    1    4    4    0    0  0.24475921932E+02  0.95910572231E+01  0.14229642879E+03  0.14470429427E+03  0.00000000000E+00 0.  1.
<mgrwt>
<rscale>  0 0.96882632E+02</rscale>
<asrwt>0</asrwt>
<pdfrwt beam="1">  1        1 0.42087024E-01 0.96882632E+02</pdfrwt>
<pdfrwt beam="2">  1       -1 0.13196444E-02 0.96882632E+02</pdfrwt>
<totfact> 0.10698133E+05</totfact>
</mgrwt>
</event>
<event>
 7    1  0.3565607E-009  0.1024776E+03  0.7818608E-02  0.1275170E+00
          1   -1    0    0  501    0  0.00000000000E+00  0.00000000000E+00  0.96943154640E+03  0.96943154641E+03  0.50400000000E-02 0.  1.
         -1   -1    0    0    0  501 -0.00000000000E+00 -0.00000000000E+00 -0.27082003630E+01  0.27082050528E+01  0.50400000000E-02 0. -1.
         23    2    1    2    0    0  0.00000000000E+00  0.00000000000E+00  0.96672334604E+03  0.97213975147E+03  0.10247764931E+03 0.  0.
    9000005    2    3    3    0    0  0.33055160185E+02  0.58014532912E+01  0.84746417577E+03  0.84824846780E+03  0.14270018897E+02 0.  0.
         22    1    3    3    0    0 -0.33055160185E+02 -0.58014532912E+01  0.11925917026E+03  0.12389128366E+03  0.00000000000E+00 0.  1.
         22    1    4    4    0    0  0.34118629985E+02  0.52817564743E+01  0.83795002745E+03  0.83866097224E+03  0.00000000000E+00 0. -1.
         22    1    4    4    0    0 -0.10634697995E+01  0.51969681690E+00  0.95141483228E+01  0.95874955596E+01  0.00000000000E+00 0. -1.
<mgrwt>
<rscale>  0 0.10247765E+03</rscale>
<asrwt>0</asrwt>
<pdfrwt beam="1">  1        1 0.14914352E+00 0.10247765E+03</pdfrwt>
<pdfrwt beam="2">  1       -1 0.41664601E-03 0.10247765E+03</pdfrwt>
<totfact> 0.10048208E+05</totfact>
</mgrwt>
</event>
<event>
 7    1  0.3565607E-009  0.9538077E+02  0.7818608E-02  0.1290321E+00
         -1   -1    0    0    0  501 -0.00000000000E+00  0.00000000000E+00  0.63143392074E+01  0.63143412188E+01  0.50400000000E-02 0.  1.
          1   -1    0    0  501    0  0.00000000000E+00 -0.00000000000E+00 -0.36019165552E+03  0.36019165556E+03  0.50400000000E-02 0. -1.
         23    2    1    2    0    0 -0.71054273576E-14  0.71054273576E-14 -0.35387731631E+03  0.36650599678E+03  0.95380766776E+02 0.  0.
    9000005    2    3    3    0    0 -0.33228120232E+02  0.32258244623E+02 -0.13436156930E+03  0.14215835247E+03  0.33561213848E+01 0.  0.
         22    1    3    3    0    0  0.33228120232E+02 -0.32258244623E+02 -0.21951574701E+03  0.22434764431E+03  0.00000000000E+00 0.  1.
         22    1    4    4    0    0 -0.12993714747E+02  0.11633802018E+02 -0.55135086611E+02  0.57827845784E+02  0.00000000000E+00 0.  1.
         22    1    4    4    0    0 -0.20234405485E+02  0.20624442605E+02 -0.79226482692E+02  0.84330506686E+02  0.00000000000E+00 0.  1.
<mgrwt>
<rscale>  0 0.95380767E+02</rscale>
<asrwt>0</asrwt>
<pdfrwt beam="2">  1        1 0.55414085E-01 0.95380767E+02</pdfrwt>
<pdfrwt beam="1">  1       -1 0.97143723E-03 0.95380767E+02</pdfrwt>
<totfact> 0.11750230E+05</totfact>
</mgrwt>
</event>
<event>
 7    1  0.3565607E-009  0.9403845E+02  0.7818608E-02  0.1293357E+00
         -1   -1    0    0    0  501 -0.00000000000E+00  0.00000000000E+00  0.20635760111E+01  0.20635821658E+01  0.50400000000E-02 0.  1.
          1   -1    0    0  501    0  0.00000000000E+00 -0.00000000000E+00 -0.10713461391E+04  0.10713461391E+04  0.50400000000E-02 0. -1.
         23    2    1    2    0    0 -0.22204460493E-15  0.00000000000E+00 -0.10692825630E+04  0.10734097212E+04  0.94038449620E+02 0.  0.
    9000005    2    3    3    0    0 -0.10256638182E+01  0.14805402986E+02 -0.10437982168E+04  0.10439189796E+04  0.56450356770E+01 0.  0.
         22    1    3    3    0    0  0.10256638182E+01 -0.14805402986E+02 -0.25484346190E+02  0.29490741676E+02  0.00000000000E+00 0.  1.
         22    1    4    4    0    0 -0.24160225212E+01  0.72354824764E+01 -0.65634188073E+03  0.65638620778E+03  0.00000000000E+00 0. -1.
         22    1    4    4    0    0  0.13903587030E+01  0.75699205099E+01 -0.38745633612E+03  0.38753277177E+03  0.00000000000E+00 0. -1.
<mgrwt>
<rscale>  0 0.94038450E+02</rscale>
<asrwt>0</asrwt>
<pdfrwt beam="2">  1        1 0.16482204E+00 0.94038450E+02</pdfrwt>
<pdfrwt beam="1">  1       -1 0.31747456E-03 0.94038450E+02</pdfrwt>
<totfact> 0.12276301E+05</totfact>
</mgrwt>
</event>
<event>
 7    1  0.3565607E-009  0.8410511E+02  0.7818608E-02  0.1317789E+00
         -1   -1    0    0    0  501 -0.00000000000E+00  0.00000000000E+00  0.57778386829E+02  0.57778387049E+02  0.50400000000E-02 0.  1.
          1   -1    0    0  501    0  0.00000000000E+00 -0.00000000000E+00 -0.30606898865E+02  0.30606899280E+02  0.50400000000E-02 0. -1.
         23    2    1    2    0    0  0.00000000000E+00  0.00000000000E+00  0.27171487964E+02  0.88385286329E+02  0.84105107344E+02 0.  0.
    9000005    2    3    3    0    0 -0.37789136752E+02  0.15314138734E+02  0.24245396907E+02  0.47506150936E+02  0.25403550762E+01 0.  0.
         22    1    3    3    0    0  0.37789136752E+02 -0.15314138734E+02  0.29260910565E+01  0.40879135393E+02  0.00000000000E+00 0. -1.
         22    1    4    4    0    0 -0.32770810962E+02  0.13959172960E+02  0.21801165887E+02  0.41762128716E+02  0.00000000000E+00 0.  1.
         22    1    4    4    0    0 -0.50183257905E+01  0.13549657742E+01  0.24442310200E+01  0.57440222204E+01  0.00000000000E+00 0.  1.
<mgrwt>
<rscale>  0 0.84105107E+02</rscale>
<asrwt>0</asrwt>
<pdfrwt beam="2">  1        1 0.47087538E-02 0.84105107E+02</pdfrwt>
<pdfrwt beam="1">  1       -1 0.88889825E-02 0.84105107E+02</pdfrwt>
<totfact> 0.10940691E+05</totfact>
</mgrwt>
</event>
<event>
 7    1  0.3565607E-009  0.9226193E+02  0.7818608E-02  0.1297465E+00
          1   -1    0    0  501    0  0.00000000000E+00  0.00000000000E+00  0.14969754117E+03  0.14969754126E+03  0.50400000000E-02 0. -1.
         -1   -1    0    0    0  501 -0.00000000000E+00 -0.00000000000E+00 -0.14215770473E+02  0.14215771366E+02  0.50400000000E-02 0.  1.
         23    2    1    2    0    0  0.00000000000E+00  0.00000000000E+00  0.13548177070E+03  0.16391331262E+03  0.92261930737E+02 0.  0.
    9000005    2    3    3    0    0 -0.36498232716E+02  0.25824486492E+02  0.86979713900E+02  0.97947604806E+02  0.54071770092E+01 0.  0.
         22    1    3    3    0    0  0.36498232716E+02 -0.25824486492E+02  0.48502056800E+02  0.65965707817E+02  0.00000000000E+00 0. -1.
         22    1    4    4    0    0 -0.13160136763E+02  0.64134000832E+01  0.26369004877E+02  0.30160326896E+02  0.00000000000E+00 0.  1.
         22    1    4    4    0    0 -0.23338095954E+02  0.19411086409E+02  0.60610709022E+02  0.67787277911E+02  0.00000000000E+00 0.  1.
<mgrwt>
<rscale>  0 0.92261931E+02</rscale>
<asrwt>0</asrwt>
<pdfrwt beam="1">  1        1 0.23030390E-01 0.92261931E+02</pdfrwt>
<pdfrwt beam="2">  1       -1 0.21870418E-02 0.92261931E+02</pdfrwt>
<totfact> 0.10856452E+05</totfact>
</mgrwt>
</event>
<event>
 7    1  0.3565607E-009  0.9095445E+02  0.7818608E-02  0.1300557E+00
         -1   -1    0    0    0  501 -0.00000000000E+00  0.00000000000E+00  0.22501066555E+02  0.22501067120E+02  0.50400000000E-02 0.  1.
          1   -1    0    0  501    0  0.00000000000E+00 -0.00000000000E+00 -0.91914665886E+02  0.91914666025E+02  0.50400000000E-02 0. -1.
         23    2    1    2    0    0 -0.71054273576E-14  0.17763568394E-14 -0.69413599331E+02  0.11441573314E+03  0.90954451341E+02 0.  0.
    9000005    2    3    3    0    0  0.33933284945E+02 -0.15839108986E+02 -0.66866550260E+02  0.76881313478E+02  0.61037380264E+01 0.  0.
         22    1    3    3    0    0 -0.33933284945E+02  0.15839108986E+02 -0.25470490717E+01  0.37534419666E+02  0.00000000000E+00 0.  1.
         22    1    4    4    0    0  0.15861858363E+02 -0.47595780114E+01 -0.25613882015E+02  0.30501198099E+02  0.00000000000E+00 0. -1.
         22    1    4    4    0    0  0.18071426582E+02 -0.11079530975E+02 -0.41252668245E+02  0.46380115380E+02  0.00000000000E+00 0. -1.
<mgrwt>
<rscale>  0 0.90954451E+02</rscale>
<asrwt>0</asrwt>
<pdfrwt beam="2">  1        1 0.14140718E-01 0.90954451E+02</pdfrwt>
<pdfrwt beam="1">  1       -1 0.34617027E-02 0.90954451E+02</pdfrwt>
<totfact> 0.10370218E+05</totfact>
</mgrwt>
</event>
<event>
 7    1  0.3565607E-009  0.9098940E+02  0.7818608E-02  0.1300473E+00
          1   -1    0    0  501    0  0.00000000000E+00  0.00000000000E+00  0.29493037276E+03  0.29493037280E+03  0.50400000000E-02 0. -1.
         -1   -1    0    0    0  501 -0.00000000000E+00 -0.00000000000E+00 -0.70178178028E+01  0.70178196126E+01  0.50400000000E-02 0.  1.
         23    2    1    2    0    0  0.00000000000E+00  0.00000000000E+00  0.28791255495E+03  0.30194819241E+03  0.90989403784E+02 0.  0.
    9000005    2    3    3    0    0  0.34485748538E+02 -0.23509835974E+02  0.97790355659E+02  0.10729868714E+03  0.14424817552E+02 0.  0.
         22    1    3    3    0    0 -0.34485748538E+02  0.23509835974E+02  0.19012219929E+03  0.19464950528E+03  0.00000000000E+00 0. -1.
         22    1    4    4    0    0  0.24104804240E+02 -0.23610625270E+02  0.76584439102E+02  0.83687989137E+02  0.00000000000E+00 0.  1.
         22    1    4    4    0    0  0.10380944298E+02  0.10078929669E+00  0.21205916557E+02  0.23610697999E+02  0.00000000000E+00 0.  1.
<mgrwt>
<rscale>  0 0.90989404E+02</rscale>
<asrwt>0</asrwt>
<pdfrwt beam="1">  1        1 0.45373898E-01 0.90989404E+02</pdfrwt>
<pdfrwt beam="2">  1       -1 0.10796645E-02 0.90989404E+02</pdfrwt>
<totfact> 0.12840782E+05</totfact>
</mgrwt>
</event>
<event>
 7    1  0.3565607E-009  0.9027306E+02  0.7818608E-02  0.1302192E+00
          1   -1    0    0  501    0  0.00000000000E+00  0.00000000000E+00  0.92534553708E+02  0.92534553846E+02  0.50400000000E-02 0. -1.
         -1   -1    0    0    0  501 -0.00000000000E+00 -0.00000000000E+00 -0.22016708894E+02  0.22016709471E+02  0.50400000000E-02 0.  1.
         23    2    1    2    0    0  0.00000000000E+00  0.00000000000E+00  0.70517844814E+02  0.11455126332E+03  0.90273060712E+02 0.  0.
    9000005    2    3    3    0    0  0.10147564475E+02 -0.42207057585E+02  0.47768319840E+02  0.65541573853E+02  0.11378785001E+02 0.  0.
         22    1    3    3    0    0 -0.10147564475E+02  0.42207057585E+02  0.22749524974E+02  0.49009689463E+02  0.00000000000E+00 0.  1.
         22    1    4    4    0    0  0.39555755927E+01 -0.21806389030E+02  0.16214389659E+02  0.27460364397E+02  0.00000000000E+00 0. -1.
         22    1    4    4    0    0  0.61919888822E+01 -0.20400668554E+02  0.31553930181E+02  0.38081209456E+02  0.00000000000E+00 0. -1.
<mgrwt>
<rscale>  0 0.90273061E+02</rscale>
<asrwt>0</asrwt>
<pdfrwt beam="1">  1        1 0.14236085E-01 0.90273061E+02</pdfrwt>
<pdfrwt beam="2">  1       -1 0.33871861E-02 0.90273061E+02</pdfrwt>
<totfact> 0.10596693E+05</totfact>
</mgrwt>
</event>
<event>
 7    1  0.3565607E-009  0.9022965E+02  0.7818608E-02  0.1302297E+00
          1   -1    0    0  501    0  0.00000000000E+00  0.00000000000E+00  0.41427800568E+02  0.41427800874E+02  0.50400000000E-02 0. -1.
         -1   -1    0    0    0  501 -0.00000000000E+00 -0.00000000000E+00 -0.49129992442E+02  0.49129992701E+02  0.50400000000E-02 0.  1.
         23    2    1    2    0    0  0.00000000000E+00  0.00000000000E+00 -0.77021918747E+01  0.90557793575E+02  0.90229652651E+02 0.  0.
    9000005    2    3    3    0    0  0.10507232590E+02 -0.31420034332E+02  0.25472165964E+02  0.43673270413E+02  0.12684747356E+02 0.  0.
         22    1    3    3    0    0 -0.10507232590E+02  0.31420034332E+02 -0.33174357839E+02  0.46884523162E+02  0.00000000000E+00 0.  1.
         22    1    4    4    0    0 -0.27570757053E+01 -0.70042930159E+01  0.37843993061E+01  0.84251566873E+01  0.00000000000E+00 0.  1.
         22    1    4    4    0    0  0.13264308295E+02 -0.24415741316E+02  0.21687766658E+02  0.35248113725E+02  0.00000000000E+00 0.  1.
<mgrwt>
<rscale>  0 0.90229653E+02</rscale>
<asrwt>0</asrwt>
<pdfrwt beam="1">  1        1 0.63735079E-02 0.90229653E+02</pdfrwt>
<pdfrwt beam="2">  1       -1 0.75584604E-02 0.90229653E+02</pdfrwt>
<totfact> 0.93866775E+04</totfact>
</mgrwt>
</event>
<event>
 7    1  0.3565607E-009  0.9284315E+02  0.7818608E-02  0.1296109E+00
          1   -1    0    0  501    0  0.00000000000E+00  0.00000000000E+00  0.12371697559E+02  0.12371698586E+02  0.50400000000E-02 0. -1.
         -1   -1    0    0    0  501 -0.00000000000E+00 -0.00000000000E+00 -0.17418486892E+03  0.17418486899E+03  0.50400000000E-02 0.  1.
         23    2    1    2    0    0  0.00000000000E+00  0.00000000000E+00 -0.16181317136E+03  0.18655656758E+03  0.92843149886E+02 0.  0.
    9000005    2    3    3    0    0 -0.39542338666E+02 -0.22253965449E+02 -0.10043889820E+03  0.11023070740E+03  0.20002643805E+01 0.  0.
         22    1    3    3    0    0  0.39542338666E+02  0.22253965449E+02 -0.61374273160E+02  0.76325860174E+02  0.00000000000E+00 0. -1.
         22    1    4    4    0    0 -0.73788220823E+01 -0.35778570125E+01 -0.19598677270E+02  0.21245145960E+02  0.00000000000E+00 0. -1.
         22    1    4    4    0    0 -0.32163516584E+02 -0.18676108436E+02 -0.80840220928E+02  0.88985561442E+02  0.00000000000E+00 0. -1.
<mgrwt>
<rscale>  0 0.92843150E+02</rscale>
<asrwt>0</asrwt>
<pdfrwt beam="1">  1        1 0.19033383E-02 0.92843150E+02</pdfrwt>
<pdfrwt beam="2">  1       -1 0.26797671E-01 0.92843150E+02</pdfrwt>
<totfact> 0.68765910E+04</totfact>
</mgrwt>
</event>
<event>
 7    1  0.3565607E-009  0.9039425E+02  0.7818608E-02  0.1301900E+00
          1   -1    0    0  501    0  0.00000000000E+00  0.00000000000E+00  0.91266526062E+02  0.91266526201E+02  0.50400000000E-02 0. -1.
         -1   -1    0    0    0  501 -0.00000000000E+00 -0.00000000000E+00 -0.22382578426E+02  0.22382578993E+02  0.50400000000E-02 0.  1.
         23    2    1    2    0    0  0.00000000000E+00 -0.88817841970E-15  0.68883947636E+02  0.11364910519E+03  0.90394252414E+02 0.  0.
    9000005    2    3    3    0    0  0.33294147082E+02 -0.67742809661E+01  0.71261271871E+02  0.79589704392E+02  0.10097577132E+02 0.  0.
         22    1    3    3    0    0 -0.33294147082E+02  0.67742809661E+01 -0.23773242355E+01  0.34059400802E+02  0.00000000000E+00 0.  1.
         22    1    4    4    0    0  0.24798556397E+02 -0.44185507621E+01  0.61378056991E+02  0.66345744929E+02  0.00000000000E+00 0.  1.
         22    1    4    4    0    0  0.84955906845E+01 -0.23557302041E+01  0.98832148803E+01  0.13243959462E+02  0.00000000000E+00 0.  1.
<mgrwt>
<rscale>  0 0.90394252E+02</rscale>
<asrwt>0</asrwt>
<pdfrwt beam="1">  1        1 0.14041004E-01 0.90394252E+02</pdfrwt>
<pdfrwt beam="2">  1       -1 0.34434736E-02 0.90394252E+02</pdfrwt>
<totfact> 0.10534395E+05</totfact>
</mgrwt>
</event>
<event>
 7    1  0.3565607E-009  0.8978546E+02  0.7818608E-02  0.1303372E+00
         -1   -1    0    0    0  501 -0.00000000000E+00  0.00000000000E+00  0.55503040231E+02  0.55503040459E+02  0.50400000000E-02 0.  1.
          1   -1    0    0  501    0  0.00000000000E+00 -0.00000000000E+00 -0.36310751637E+02  0.36310751987E+02  0.50400000000E-02 0. -1.
         23    2    1    2    0    0  0.00000000000E+00  0.00000000000E+00  0.19192288593E+02  0.91813792446E+02  0.89785458410E+02 0.  0.
    9000005    2    3    3    0    0  0.20309839583E+02 -0.27005073854E+01  0.50128670847E+02  0.54707969844E+02  0.77650498738E+01 0.  0.
         22    1    3    3    0    0 -0.20309839583E+02  0.27005073854E+01 -0.30936382254E+02  0.37105822602E+02  0.00000000000E+00 0. -1.
         22    1    4    4    0    0  0.29094754877E+01 -0.33476581403E+01  0.85919648900E+01  0.96692152375E+01  0.00000000000E+00 0.  1.
         22    1    4    4    0    0  0.17400364096E+02  0.64715075493E+00  0.41536705957E+02  0.45038754607E+02  0.00000000000E+00 0.  1.
<mgrwt>
<rscale>  0 0.89785458E+02</rscale>
<asrwt>0</asrwt>
<pdfrwt beam="2">  1        1 0.55862696E-02 0.89785458E+02</pdfrwt>
<pdfrwt beam="1">  1       -1 0.85389292E-02 0.89785458E+02</pdfrwt>
<totfact> 0.93308789E+04</totfact>
</mgrwt>
</event>
<event>
 7    1  0.3565607E-009  0.8877425E+02  0.7818608E-02  0.1305847E+00
          1   -1    0    0  501    0  0.00000000000E+00  0.00000000000E+00  0.51947742833E+03  0.51947742836E+03  0.50400000000E-02 0. -1.
         -1   -1    0    0    0  501 -0.00000000000E+00 -0.00000000000E+00 -0.37926884704E+01  0.37926918191E+01  0.50400000000E-02 0.  1.
         23    2    1    2    0    0  0.00000000000E+00  0.00000000000E+00  0.51568473986E+03  0.52327012018E+03  0.88774251574E+02 0.  0.
    9000005    2    3    3    0    0  0.81832965443E+01  0.42793184173E+02  0.29221060147E+03  0.29558851468E+03  0.93440591598E+01 0.  0.
         22    1    3    3    0    0 -0.81832965443E+01 -0.42793184173E+02  0.22347413839E+03  0.22768160550E+03  0.00000000000E+00 0.  1.
         22    1    4    4    0    0  0.26367695806E+01  0.33109013368E+02  0.20641271094E+03  0.20906785157E+03  0.00000000000E+00 0.  1.
         22    1    4    4    0    0  0.55465269637E+01  0.96841708049E+01  0.85797890528E+02  0.86520663108E+02  0.00000000000E+00 0.  1.
<mgrwt>
<rscale>  0 0.88774252E+02</rscale>
<asrwt>0</asrwt>
<pdfrwt beam="1">  1        1 0.79919554E-01 0.88774252E+02</pdfrwt>
<pdfrwt beam="2">  1       -1 0.58349116E-03 0.88774252E+02</pdfrwt>
<totfact> 0.15010296E+05</totfact>
</mgrwt>
</event>
<event>
 7    1  0.3773915E-009  0.9254271E+02  0.7818608E-02  0.1296808E+00
         -1   -1    0    0    0  501 -0.00000000000E+00  0.00000000000E+00  0.26265295593E+02  0.26265296077E+02  0.50400000000E-02 0.  1.
          1   -1    0    0  501    0  0.00000000000E+00 -0.00000000000E+00 -0.81515856172E+02  0.81515856327E+02  0.50400000000E-02 0. -1.
         23    2    1    2    0    0  0.00000000000E+00 -0.35527136788E-14 -0.55250560578E+02  0.10778115240E+03  0.92542705652E+02 0.  0.
    9000005    2    3    3    0    0  0.65329737836E+01 -0.17079812389E+02 -0.76269439650E+02  0.79920911646E+02  0.15359848831E+02 0.  0.
         22    1    3    3    0    0 -0.65329737836E+01  0.17079812389E+02  0.21018879071E+02  0.27860240758E+02  0.00000000000E+00 0.  1.
         22    1    4    4    0    0 -0.27665160341E+01  0.38525042232E+00 -0.21621064074E+02  0.21800744036E+02  0.00000000000E+00 0.  1.
         22    1    4    4    0    0  0.92994898177E+01 -0.17465062811E+02 -0.54648375576E+02  0.58120167610E+02  0.00000000000E+00 0.  1.
<mgrwt>
<rscale>  0 0.92542706E+02</rscale>
<asrwt>0</asrwt>
<pdfrwt beam="2">  1        1 0.12540901E-01 0.92542706E+02</pdfrwt>
<pdfrwt beam="1">  1       -1 0.40408148E-02 0.92542706E+02</pdfrwt>
<totfact> 0.96997450E+04</totfact>
</mgrwt>
</event>
<event>
 7    1  0.3565607E-009  0.9010741E+02  0.7818608E-02  0.1302592E+00
         -1   -1    0    0    0  501 -0.00000000000E+00  0.00000000000E+00  0.50838180515E+02  0.50838180765E+02  0.50400000000E-02 0.  1.
          1   -1    0    0  501    0  0.00000000000E+00 -0.00000000000E+00 -0.39927400908E+02  0.39927401226E+02  0.50400000000E-02 0. -1.
         23    2    1    2    0    0  0.00000000000E+00  0.00000000000E+00  0.10910779607E+02  0.90765581990E+02  0.90107412361E+02 0.  0.
    9000005    2    3    3    0    0  0.12971578262E+02  0.36778155355E+02  0.26264364302E+02  0.48853446315E+02  0.13264532814E+02 0.  0.
         22    1    3    3    0    0 -0.12971578262E+02 -0.36778155355E+02 -0.15353584694E+02  0.41912135675E+02  0.00000000000E+00 0. -1.
         22    1    4    4    0    0  0.27177761808E+01  0.15184696020E+01  0.63702487772E+01  0.70902839707E+01  0.00000000000E+00 0. -1.
         22    1    4    4    0    0  0.10253802082E+02  0.35259685753E+02  0.19894115525E+02  0.41763162344E+02  0.00000000000E+00 0. -1.
<mgrwt>
<rscale>  0 0.90107412E+02</rscale>
<asrwt>0</asrwt>
<pdfrwt beam="2">  1        1 0.61426771E-02 0.90107412E+02</pdfrwt>
<pdfrwt beam="1">  1       -1 0.78212586E-02 0.90107412E+02</pdfrwt>
<totfact> 0.93705226E+04</totfact>
</mgrwt>
</event>
<event>
 7    1  0.3565607E-009  0.8813085E+02  0.7818608E-02  0.1307442E+00
          1   -1    0    0  501    0  0.00000000000E+00  0.00000000000E+00  0.91681498984E+01  0.91681512837E+01  0.50400000000E-02 0. -1.
         -1   -1    0    0    0  501 -0.00000000000E+00 -0.00000000000E+00 -0.21179426557E+03  0.21179426563E+03  0.50400000000E-02 0.  1.
         23    2    1    2    0    0  0.35527136788E-14  0.00000000000E+00 -0.20262611567E+03  0.22096241691E+03  0.88130851216E+02 0.  0.
    9000005    2    3    3    0    0 -0.18419358202E+02 -0.37455429957E+02 -0.13505568618E+03  0.14153984499E+03  0.71629155562E+01 0.  0.
         22    1    3    3    0    0  0.18419358202E+02  0.37455429957E+02 -0.67570429487E+02  0.79422571923E+02  0.00000000000E+00 0. -1.
         22    1    4    4    0    0  0.60375105090E+00 -0.22929053323E+01 -0.76006753113E+01  0.79619215885E+01  0.00000000000E+00 0. -1.
         22    1    4    4    0    0 -0.19023109252E+02 -0.35162524625E+02 -0.12745501087E+03  0.13357792340E+03  0.00000000000E+00 0. -1.
<mgrwt>
<rscale>  0 0.88130851E+02</rscale>
<asrwt>0</asrwt>
<pdfrwt beam="1">  1        1 0.14104849E-02 0.88130851E+02</pdfrwt>
<pdfrwt beam="2">  1       -1 0.32583730E-01 0.88130851E+02</pdfrwt>
<totfact> 0.74584674E+04</totfact>
</mgrwt>
</event>
<event>
 7    1  0.3565607E-009  0.9088575E+02  0.7818608E-02  0.1300721E+00
          1   -1    0    0  501    0  0.00000000000E+00  0.00000000000E+00  0.19394617213E+03  0.19394617219E+03  0.50400000000E-02 0. -1.
         -1   -1    0    0    0  501 -0.00000000000E+00 -0.00000000000E+00 -0.10647567232E+02  0.10647568425E+02  0.50400000000E-02 0.  1.
         23    2    1    2    0    0 -0.17763568394E-14 -0.88817841970E-15  0.18329860489E+03  0.20459374062E+03  0.90885753249E+02 0.  0.
    9000005    2    3    3    0    0  0.12839049931E+02  0.59731979551E+01  0.18881297859E+03  0.18939740507E+03  0.45294441231E+01 0.  0.
         22    1    3    3    0    0 -0.12839049931E+02 -0.59731979551E+01 -0.55143736969E+01  0.15196335552E+02  0.00000000000E+00 0.  1.
         22    1    4    4    0    0  0.11873683127E+02  0.56259306781E+01  0.15101505038E+03  0.15158555633E+03  0.00000000000E+00 0.  1.
         22    1    4    4    0    0  0.96536680424E+00  0.34726727700E+00  0.37797928213E+02  0.37811848736E+02  0.00000000000E+00 0.  1.
<mgrwt>
<rscale>  0 0.90885753E+02</rscale>
<asrwt>0</asrwt>
<pdfrwt beam="1">  1        1 0.29837870E-01 0.90885753E+02</pdfrwt>
<pdfrwt beam="2">  1       -1 0.16380875E-02 0.90885753E+02</pdfrwt>
<totfact> 0.11871756E+05</totfact>
</mgrwt>
</event>
<event>
 7    1  0.3565607E-009  0.9505624E+02  0.7818608E-02  0.1291049E+00
         -1   -1    0    0    0  501 -0.00000000000E+00  0.00000000000E+00  0.45935597361E+03  0.45935597364E+03  0.50400000000E-02 0.  1.
          1   -1    0    0  501    0  0.00000000000E+00 -0.00000000000E+00 -0.49175843443E+01  0.49175869271E+01  0.50400000000E-02 0. -1.
         23    2    1    2    0    0 -0.71054273576E-14 -0.35527136788E-14  0.45443838927E+03  0.46427356056E+03  0.95056243357E+02 0.  0.
    9000005    2    3    3    0    0 -0.37008396229E+02 -0.28899446168E+02  0.21313939199E+03  0.21844840834E+03  0.93009304913E+01 0.  0.
         22    1    3    3    0    0  0.37008396229E+02  0.28899446168E+02  0.24129899727E+03  0.24582515222E+03  0.00000000000E+00 0. -1.
         22    1    4    4    0    0 -0.25472784507E+02 -0.14692578129E+02  0.13991350936E+03  0.14297036303E+03  0.00000000000E+00 0.  1.
         22    1    4    4    0    0 -0.11535611721E+02 -0.14206868040E+02  0.73225882630E+02  0.75478045313E+02  0.00000000000E+00 0.  1.
<mgrwt>
<rscale>  0 0.95056243E+02</rscale>
<asrwt>0</asrwt>
<pdfrwt beam="2">  1        1 0.75655155E-03 0.95056243E+02</pdfrwt>
<pdfrwt beam="1">  1       -1 0.70670158E-01 0.95056243E+02</pdfrwt>
<totfact> 0.44341487E+04</totfact>
</mgrwt>
</event>
<event>
 7    1  0.3565607E-009  0.9050756E+02  0.7818608E-02  0.1301627E+00
          1   -1    0    0  501    0  0.00000000000E+00  0.00000000000E+00  0.54185922726E+03  0.54185922728E+03  0.50400000000E-02 0. -1.
         -1   -1    0    0    0  501 -0.00000000000E+00 -0.00000000000E+00 -0.37794016214E+01  0.37794049820E+01  0.50400000000E-02 0.  1.
         23    2    1    2    0    0  0.00000000000E+00  0.00000000000E+00  0.53807982564E+03  0.54563863226E+03  0.90507559138E+02 0.  0.
    9000005    2    3    3    0    0 -0.76043685833E+01  0.35719299834E+02  0.42774166666E+03  0.42941383229E+03  0.99805392620E+01 0.  0.
         22    1    3    3    0    0  0.76043685833E+01 -0.35719299834E+02  0.11033815898E+03  0.11622479997E+03  0.00000000000E+00 0.  1.
         22    1    4    4    0    0  0.14744563781E+01  0.73384749578E+01  0.11989339026E+03  0.12012681742E+03  0.00000000000E+00 0.  1.
         22    1    4    4    0    0 -0.90788249614E+01  0.28380824876E+02  0.30784827640E+03  0.30928701487E+03  0.00000000000E+00 0.  1.
<mgrwt>
<rscale>  0 0.90507559E+02</rscale>
<asrwt>0</asrwt>
<pdfrwt beam="1">  1        1 0.83362973E-01 0.90507559E+02</pdfrwt>
<pdfrwt beam="2">  1       -1 0.58144656E-03 0.90507559E+02</pdfrwt>
<totfact> 0.14323241E+05</totfact>
</mgrwt>
</event>
<event>
 7    1  0.3565607E-009  0.9344236E+02  0.7818608E-02  0.1294723E+00
          1   -1    0    0  501    0  0.00000000000E+00  0.00000000000E+00  0.16184606428E+02  0.16184607213E+02  0.50400000000E-02 0. -1.
         -1   -1    0    0    0  501 -0.00000000000E+00 -0.00000000000E+00 -0.13487314828E+03  0.13487314838E+03  0.50400000000E-02 0.  1.
         23    2    1    2    0    0 -0.17763568394E-14  0.00000000000E+00 -0.11868854185E+03  0.15105775559E+03  0.93442364889E+02 0.  0.
    9000005    2    3    3    0    0  0.13714835252E+02  0.41417867117E+02 -0.81809929058E+02  0.93930104628E+02  0.15048708925E+02 0.  0.
         22    1    3    3    0    0 -0.13714835252E+02 -0.41417867117E+02 -0.36878612795E+02  0.57127650960E+02  0.00000000000E+00 0.  1.
         22    1    4    4    0    0  0.61396766080E+01  0.19524264653E+02 -0.23367648843E+02  0.31063476166E+02  0.00000000000E+00 0.  1.
         22    1    4    4    0    0  0.75751586442E+01  0.21893602465E+02 -0.58442280215E+02  0.62866628461E+02  0.00000000000E+00 0.  1.
<mgrwt>
<rscale>  0 0.93442365E+02</rscale>
<asrwt>0</asrwt>
<pdfrwt beam="1">  1        1 0.24899396E-02 0.93442365E+02</pdfrwt>
<pdfrwt beam="2">  1       -1 0.20749714E-01 0.93442365E+02</pdfrwt>
<totfact> 0.71884452E+04</totfact>
</mgrwt>
</event>
<event>
 7    1  0.3565607E-009  0.8827764E+02  0.7818608E-02  0.1307077E+00
         -1   -1    0    0    0  501 -0.00000000000E+00  0.00000000000E+00  0.18392455330E+02  0.18392456021E+02  0.50400000000E-02 0.  1.
          1   -1    0    0  501    0  0.00000000000E+00 -0.00000000000E+00 -0.10592577967E+03  0.10592577979E+03  0.50400000000E-02 0. -1.
         23    2    1    2    0    0  0.71054273576E-14  0.00000000000E+00 -0.87533324344E+02  0.12431823581E+03  0.88277635250E+02 0.  0.
    9000005    2    3    3    0    0  0.35500490724E+02  0.25346388243E+02 -0.37447078384E+02  0.57900194041E+02  0.68865486193E+01 0.  0.
         22    1    3    3    0    0 -0.35500490724E+02 -0.25346388243E+02 -0.50086245961E+02  0.66418041774E+02  0.00000000000E+00 0. -1.
         22    1    4    4    0    0  0.34176512028E+02  0.25564602557E+02 -0.37001733637E+02  0.56486380398E+02  0.00000000000E+00 0. -1.
         22    1    4    4    0    0  0.13239786960E+01 -0.21821431367E+00 -0.44534474639E+00  0.14138136430E+01  0.00000000000E+00 0. -1.
<mgrwt>
<rscale>  0 0.88277635E+02</rscale>
<asrwt>0</asrwt>
<pdfrwt beam="2">  1        1 0.16296273E-01 0.88277635E+02</pdfrwt>
<pdfrwt beam="1">  1       -1 0.28296086E-02 0.88277635E+02</pdfrwt>
<totfact> 0.11512898E+05</totfact>
</mgrwt>
</event>
<event>
 7    1  0.3565607E-009  0.9288402E+02  0.7818608E-02  0.1296014E+00
          1   -1    0    0  501    0  0.00000000000E+00  0.00000000000E+00  0.29504011199E+01  0.29504054247E+01  0.50400000000E-02 0. -1.
         -1   -1    0    0    0  501 -0.00000000000E+00 -0.00000000000E+00 -0.73103916744E+03  0.73103916746E+03  0.50400000000E-02 0.  1.
         23    2    1    2    0    0  0.88817841970E-15  0.71054273576E-14 -0.72808876633E+03  0.73398957289E+03  0.92884021544E+02 0.  0.
    9000005    2    3    3    0    0  0.48596080453E+01  0.43597909870E+02 -0.47975246360E+03  0.48180846181E+03  0.72507931530E+01 0.  0.
         22    1    3    3    0    0 -0.48596080453E+01 -0.43597909870E+02 -0.24833630272E+03  0.25218111108E+03  0.00000000000E+00 0. -1.
         22    1    4    4    0    0  0.38805636341E+01  0.33864004888E+02 -0.40211242615E+03  0.40355449801E+03  0.00000000000E+00 0. -1.
         22    1    4    4    0    0  0.97904441126E+00  0.97339049819E+01 -0.77640037455E+02  0.78253963798E+02  0.00000000000E+00 0. -1.
<mgrwt>
<rscale>  0 0.92884022E+02</rscale>
<asrwt>0</asrwt>
<pdfrwt beam="1">  1        1 0.45390878E-03 0.92884022E+02</pdfrwt>
<pdfrwt beam="2">  1       -1 0.11246742E+00 0.92884022E+02</pdfrwt>
<totfact> 0.33797759E+04</totfact>
</mgrwt>
</event>
<event>
 7    1  0.3565607E-009  0.9159208E+02  0.7818608E-02  0.1299041E+00
         -1   -1    0    0    0  501 -0.00000000000E+00  0.00000000000E+00  0.23210564054E+02  0.23210564602E+02  0.50400000000E-02 0.  1.
          1   -1    0    0  501    0  0.00000000000E+00 -0.00000000000E+00 -0.90358737855E+02  0.90358737996E+02  0.50400000000E-02 0. -1.
         23    2    1    2    0    0  0.00000000000E+00  0.35527136788E-14 -0.67148173801E+02  0.11356930260E+03  0.91592080704E+02 0.  0.
    9000005    2    3    3    0    0  0.78070805916E+01  0.23938342917E+02 -0.80566498244E+02  0.85037807722E+02  0.10318591663E+02 0.  0.
         22    1    3    3    0    0 -0.78070805916E+01 -0.23938342917E+02  0.13418324443E+02  0.28531494876E+02  0.00000000000E+00 0.  1.
         22    1    4    4    0    0 -0.17886926588E+01  0.10540955832E+01 -0.10593703605E+02  0.10795234828E+02  0.00000000000E+00 0.  1.
         22    1    4    4    0    0  0.95957732504E+01  0.22884247334E+02 -0.69972794639E+02  0.74242572894E+02  0.00000000000E+00 0.  1.
<mgrwt>
<rscale>  0 0.91592081E+02</rscale>
<asrwt>0</asrwt>
<pdfrwt beam="2">  1        1 0.13901344E-01 0.91592081E+02</pdfrwt>
<pdfrwt beam="1">  1       -1 0.35708561E-02 0.91592081E+02</pdfrwt>
<totfact> 0.10145667E+05</totfact>
</mgrwt>
</event>
<event>
 7    1  0.3565607E-009  0.9158752E+02  0.7818608E-02  0.1299052E+00
         -1   -1    0    0    0  501 -0.00000000000E+00  0.00000000000E+00  0.36365501875E+02  0.36365502224E+02  0.50400000000E-02 0.  1.
          1   -1    0    0  501    0  0.00000000000E+00 -0.00000000000E+00 -0.57666426057E+02  0.57666426277E+02  0.50400000000E-02 0. -1.
         23    2    1    2    0    0 -0.71054273576E-14  0.00000000000E+00 -0.21300924182E+02  0.94031928501E+02  0.91587522112E+02 0.  0.
    9000005    2    3    3    0    0 -0.39409243392E+02 -0.15872854879E+02  0.43488547319E+01  0.44403840233E+02  0.12155348750E+02 0.  0.
         22    1    3    3    0    0  0.39409243392E+02  0.15872854879E+02 -0.25649778914E+02  0.49628088268E+02  0.00000000000E+00 0. -1.
         22    1    4    4    0    0 -0.35468826345E+02 -0.16317269847E+02  0.69575967144E+01  0.39657270325E+02  0.00000000000E+00 0. -1.
         22    1    4    4    0    0 -0.39404170466E+01  0.44441496795E+00 -0.26087419824E+01  0.47465699085E+01  0.00000000000E+00 0. -1.
<mgrwt>
<rscale>  0 0.91587522E+02</rscale>
<asrwt>0</asrwt>
<pdfrwt beam="2">  1        1 0.88717579E-02 0.91587522E+02</pdfrwt>
<pdfrwt beam="1">  1       -1 0.55946926E-02 0.91587522E+02</pdfrwt>
<totfact> 0.94605248E+04</totfact>
</mgrwt>
</event>
<event>
 7    1  0.3565607E-009  0.8540269E+02  0.7818608E-02  0.1314383E+00
          1   -1    0    0  501    0  0.00000000000E+00  0.00000000000E+00  0.19855384342E+02  0.19855384982E+02  0.50400000000E-02 0. -1.
         -1   -1    0    0    0  501 -0.00000000000E+00 -0.00000000000E+00 -0.91834264595E+02  0.91834264733E+02  0.50400000000E-02 0.  1.
         23    2    1    2    0    0  0.00000000000E+00  0.00000000000E+00 -0.71978880252E+02  0.11168964972E+03  0.85402685269E+02 0.  0.
    9000005    2    3    3    0    0  0.17165080312E+02 -0.37912647859E+02 -0.31065310145E+02  0.53329311567E+02  0.12122422533E+02 0.  0.
         22    1    3    3    0    0 -0.17165080312E+02  0.37912647859E+02 -0.40913570108E+02  0.58360338148E+02  0.00000000000E+00 0.  1.
         22    1    4    4    0    0  0.22767018403E+01 -0.70652938055E+01 -0.52960490338E+00  0.74419237554E+01  0.00000000000E+00 0. -1.
         22    1    4    4    0    0  0.14888378472E+02 -0.30847354053E+02 -0.30535705241E+02  0.45887387812E+02  0.00000000000E+00 0. -1.
<mgrwt>
<rscale>  0 0.85402685E+02</rscale>
<asrwt>0</asrwt>
<pdfrwt beam="1">  1        1 0.30546746E-02 0.85402685E+02</pdfrwt>
<pdfrwt beam="2">  1       -1 0.14128348E-01 0.85402685E+02</pdfrwt>
<totfact> 0.97744932E+04</totfact>
</mgrwt>
</event>
<event>
 7    1  0.3565607E-009  0.9091838E+02  0.7818608E-02  0.1300643E+00
         -1   -1    0    0    0  501 -0.00000000000E+00  0.00000000000E+00  0.57098398147E+02  0.57098398369E+02  0.50400000000E-02 0.  1.
          1   -1    0    0  501    0  0.00000000000E+00 -0.00000000000E+00 -0.36192569128E+02  0.36192569479E+02  0.50400000000E-02 0. -1.
         23    2    1    2    0    0  0.00000000000E+00  0.00000000000E+00  0.20905829019E+02  0.93290967848E+02  0.90918375453E+02 0.  0.
    9000005    2    3    3    0    0  0.17102138495E+02 -0.40416215837E+02  0.42025139029E+01  0.46334026087E+02  0.14255778009E+02 0.  0.
         22    1    3    3    0    0 -0.17102138495E+02  0.40416215837E+02  0.16703315116E+02  0.46956941761E+02  0.00000000000E+00 0.  1.
         22    1    4    4    0    0  0.54454911766E+00 -0.97195067698E+00  0.33678480985E+01  0.35473402254E+01  0.00000000000E+00 0. -1.
         22    1    4    4    0    0  0.16557589377E+02 -0.39444265160E+02  0.83466580443E+00  0.42786685861E+02  0.00000000000E+00 0. -1.
<mgrwt>
<rscale>  0 0.90918375E+02</rscale>
<asrwt>0</asrwt>
<pdfrwt beam="2">  1        1 0.55680876E-02 0.90918375E+02</pdfrwt>
<pdfrwt beam="1">  1       -1 0.87843690E-02 0.90918375E+02</pdfrwt>
<totfact> 0.90008704E+04</totfact>
</mgrwt>
</event>
<event>
 7    1  0.3565607E-009  0.9325161E+02  0.7818608E-02  0.1295163E+00
          1   -1    0    0  501    0  0.00000000000E+00  0.00000000000E+00  0.46497719494E+02  0.46497719767E+02  0.50400000000E-02 0. -1.
         -1   -1    0    0    0  501 -0.00000000000E+00 -0.00000000000E+00 -0.46754244084E+02  0.46754244355E+02  0.50400000000E-02 0.  1.
         23    2    1    2    0    0  0.00000000000E+00  0.35527136788E-14 -0.25652458981E+00  0.93251964123E+02  0.93251611288E+02 0.  0.
    9000005    2    3    3    0    0  0.37129922176E+02  0.24324637032E+02  0.13231673738E+02  0.46859609346E+02  0.71011767074E+01 0.  0.
         22    1    3    3    0    0 -0.37129922176E+02 -0.24324637032E+02 -0.13488198328E+02  0.46392354776E+02  0.00000000000E+00 0.  1.
         22    1    4    4    0    0  0.20175807329E+02  0.14446892305E+02  0.38547070650E+01  0.25112440448E+02  0.00000000000E+00 0.  1.
         22    1    4    4    0    0  0.16954114846E+02  0.98777447272E+01  0.93769666732E+01  0.21747168899E+02  0.00000000000E+00 0.  1.
<mgrwt>
<rscale>  0 0.93251611E+02</rscale>
<asrwt>0</asrwt>
<pdfrwt beam="1">  1        1 0.71534954E-02 0.93251611E+02</pdfrwt>
<pdfrwt beam="2">  1       -1 0.71929607E-02 0.93251611E+02</pdfrwt>
<totfact> 0.87060420E+04</totfact>
</mgrwt>
</event>
<event>
 7    1  0.3565607E-009  0.8931013E+02  0.7818608E-02  0.1304531E+00
          1   -1    0    0  501    0  0.00000000000E+00  0.00000000000E+00  0.28131524146E+03  0.28131524151E+03  0.50400000000E-02 0. -1.
         -1   -1    0    0    0  501 -0.00000000000E+00 -0.00000000000E+00 -0.70883978120E+01  0.70883996037E+01  0.50400000000E-02 0.  1.
         23    2    1    2    0    0  0.00000000000E+00  0.00000000000E+00  0.27422684365E+03  0.28840364111E+03  0.89310125002E+02 0.  0.
    9000005    2    3    3    0    0  0.14770571373E+02 -0.36349732669E+02  0.20342287469E+03  0.20745504715E+03  0.10828563956E+02 0.  0.
         22    1    3    3    0    0 -0.14770571373E+02  0.36349732669E+02  0.70803968966E+02  0.80948593966E+02  0.00000000000E+00 0.  1.
         22    1    4    4    0    0  0.10652567258E+02 -0.26122660701E+02  0.11809549615E+03  0.12141835447E+03  0.00000000000E+00 0. -1.
         22    1    4    4    0    0  0.41180041145E+01 -0.10227071968E+02  0.85327378534E+02  0.86036692674E+02  0.00000000000E+00 0. -1.
<mgrwt>
<rscale>  0 0.89310125E+02</rscale>
<asrwt>0</asrwt>
<pdfrwt beam="1">  1        1 0.43279263E-01 0.89310125E+02</pdfrwt>
<pdfrwt beam="2">  1       -1 0.10905230E-02 0.89310125E+02</pdfrwt>
<totfact> 0.13371342E+05</totfact>
</mgrwt>
</event>
<event>
 7    1  0.3565607E-009  0.9256979E+02  0.7818608E-02  0.1296745E+00
          1   -1    0    0  501    0  0.00000000000E+00  0.00000000000E+00  0.18895104153E+03  0.18895104159E+03  0.50400000000E-02 0. -1.
         -1   -1    0    0    0  501 -0.00000000000E+00 -0.00000000000E+00 -0.11337813211E+02  0.11337814332E+02  0.50400000000E-02 0.  1.
         23    2    1    2    0    0  0.00000000000E+00  0.00000000000E+00  0.17761322832E+03  0.20028885593E+03  0.92569794941E+02 0.  0.
    9000005    2    3    3    0    0  0.40974663410E+02  0.16511214798E+02  0.64302311338E+02  0.78670982396E+02  0.10138686903E+02 0.  0.
         22    1    3    3    0    0 -0.40974663410E+02 -0.16511214798E+02  0.11331091698E+03  0.12161787353E+03  0.00000000000E+00 0. -1.
         22    1    4    4    0    0  0.18123522709E+02  0.12754913169E+02  0.30856675676E+02  0.37990581979E+02  0.00000000000E+00 0. -1.
         22    1    4    4    0    0  0.22851140701E+02  0.37563016287E+01  0.33445635662E+02  0.40680400417E+02  0.00000000000E+00 0. -1.
<mgrwt>
<rscale>  0 0.92569795E+02</rscale>
<asrwt>0</asrwt>
<pdfrwt beam="1">  1        1 0.29069390E-01 0.92569795E+02</pdfrwt>
<pdfrwt beam="2">  1       -1 0.17442791E-02 0.92569795E+02</pdfrwt>
<totfact> 0.11243350E+05</totfact>
</mgrwt>
</event>
<event>
 7    1  0.3565607E-009  0.9089832E+02  0.7818608E-02  0.1300691E+00
          1   -1    0    0  501    0  0.00000000000E+00  0.00000000000E+00  0.15238627335E+02  0.15238628169E+02  0.50400000000E-02 0. -1.
         -1   -1    0    0    0  501 -0.00000000000E+00 -0.00000000000E+00 -0.13555197043E+03  0.13555197053E+03  0.50400000000E-02 0.  1.
         23    2    1    2    0    0 -0.27755575616E-15  0.00000000000E+00 -0.12031334310E+03  0.15079059869E+03  0.90898317517E+02 0.  0.
    9000005    2    3    3    0    0 -0.47860197395E+00 -0.38511771787E+02 -0.22732067414E+02  0.45883539875E+02  0.10255082474E+02 0.  0.
         22    1    3    3    0    0  0.47860197395E+00  0.38511771787E+02 -0.97581275683E+02  0.10490705882E+03  0.00000000000E+00 0.  1.
         22    1    4    4    0    0 -0.26612843540E+01 -0.98865922311E+01 -0.19001122813E+01  0.10413336019E+02  0.00000000000E+00 0. -1.
         22    1    4    4    0    0  0.21826823800E+01 -0.28625179556E+02 -0.20831955132E+02  0.35470203857E+02  0.00000000000E+00 0. -1.
<mgrwt>
<rscale>  0 0.90898318E+02</rscale>
<asrwt>0</asrwt>
<pdfrwt beam="1">  1        1 0.23444044E-02 0.90898318E+02</pdfrwt>
<pdfrwt beam="2">  1       -1 0.20854149E-01 0.90898318E+02</pdfrwt>
<totfact> 0.77135771E+04</totfact>
</mgrwt>
</event>
<event>
 7    1  0.3565607E-009  0.9211303E+02  0.7818608E-02  0.1297814E+00
          1   -1    0    0  501    0  0.00000000000E+00  0.00000000000E+00  0.43535580615E+02  0.43535580907E+02  0.50400000000E-02 0. -1.
         -1   -1    0    0    0  501 -0.00000000000E+00 -0.00000000000E+00 -0.48723422175E+02  0.48723422436E+02  0.50400000000E-02 0.  1.
         23    2    1    2    0    0  0.00000000000E+00  0.35527136788E-14 -0.51878415603E+01  0.92259003342E+02  0.92113028382E+02 0.  0.
    9000005    2    3    3    0    0  0.54014772195E+01  0.26794395491E+02  0.33900216249E+02  0.44562128716E+02  0.94574345410E+01 0.  0.
         22    1    3    3    0    0 -0.54014772195E+01 -0.26794395491E+02 -0.39088057809E+02  0.47696874627E+02  0.00000000000E+00 0.  1.
         22    1    4    4    0    0 -0.20162506976E+01  0.20040213636E+01  0.19484143980E+01  0.34464020612E+01  0.00000000000E+00 0. -1.
         22    1    4    4    0    0  0.74177279171E+01  0.24790374127E+02  0.31951801851E+02  0.41115726655E+02  0.00000000000E+00 0. -1.
<mgrwt>
<rscale>  0 0.92113028E+02</rscale>
<asrwt>0</asrwt>
<pdfrwt beam="1">  1        1 0.66977817E-02 0.92113028E+02</pdfrwt>
<pdfrwt beam="2">  1       -1 0.74959111E-02 0.92113028E+02</pdfrwt>
<totfact> 0.89226986E+04</totfact>
</mgrwt>
</event>
<event>
 7    1  0.3565607E-009  0.9955064E+02  0.7818608E-02  0.1281244E+00
          1   -1    0    0  501    0  0.00000000000E+00  0.00000000000E+00  0.22560191247E+03  0.22560191252E+03  0.50400000000E-02 0. -1.
         -1   -1    0    0    0  501 -0.00000000000E+00 -0.00000000000E+00 -0.10982097615E+02  0.10982098772E+02  0.50400000000E-02 0.  1.
         23    2    1    2    0    0  0.00000000000E+00  0.00000000000E+00  0.21461981485E+03  0.23658401129E+03  0.99550637735E+02 0.  0.
    9000005    2    3    3    0    0  0.16193601626E+02 -0.42311325575E+02  0.62109900173E+02  0.77487326601E+02  0.97038692644E+01 0.  0.
         22    1    3    3    0    0 -0.16193601626E+02  0.42311325575E+02  0.15250991468E+03  0.15909668469E+03  0.00000000000E+00 0. -1.
         22    1    4    4    0    0  0.16701986848E+02 -0.32876662997E+02  0.48867594252E+02  0.61219875061E+02  0.00000000000E+00 0.  1.
         22    1    4    4    0    0 -0.50838522237E+00 -0.94346625778E+01  0.13242305921E+02  0.16267451540E+02  0.00000000000E+00 0.  1.
<mgrwt>
<rscale>  0 0.99550638E+02</rscale>
<asrwt>0</asrwt>
<pdfrwt beam="1">  1        1 0.34707985E-01 0.99550638E+02</pdfrwt>
<pdfrwt beam="2">  1       -1 0.16895537E-02 0.99550638E+02</pdfrwt>
<totfact> 0.95697081E+04</totfact>
</mgrwt>
</event>
<event>
 7    1  0.3565607E-009  0.9228534E+02  0.7818608E-02  0.1297410E+00
         -1   -1    0    0    0  501 -0.00000000000E+00  0.00000000000E+00  0.65962605368E+02  0.65962605560E+02  0.50400000000E-02 0.  1.
          1   -1    0    0  501    0  0.00000000000E+00 -0.00000000000E+00 -0.32278078719E+02  0.32278079112E+02  0.50400000000E-02 0. -1.
         23    2    1    2    0    0  0.00000000000E+00  0.00000000000E+00  0.33684526649E+02  0.98240684673E+02  0.92285344391E+02 0.  0.
    9000005    2    3    3    0    0 -0.13197011478E+02 -0.43559646858E+02  0.17369725307E+02  0.49890124292E+02  0.10757006940E+02 0.  0.
         22    1    3    3    0    0  0.13197011478E+02  0.43559646858E+02  0.16314801343E+02  0.48350560381E+02  0.00000000000E+00 0. -1.
         22    1    4    4    0    0 -0.76456626628E+01 -0.13041211364E+02  0.96163958649E+01  0.17916596240E+02  0.00000000000E+00 0. -1.
         22    1    4    4    0    0 -0.55513488150E+01 -0.30518435494E+02  0.77533294418E+01  0.31973528052E+02  0.00000000000E+00 0. -1.
<mgrwt>
<rscale>  0 0.92285344E+02</rscale>
<asrwt>0</asrwt>
<pdfrwt beam="2">  1        1 0.49658584E-02 0.92285344E+02</pdfrwt>
<pdfrwt beam="1">  1       -1 0.10148093E-01 0.92285344E+02</pdfrwt>
<totfact> 0.84719854E+04</totfact>
</mgrwt>
</event>
<event>
 7    1  0.3565607E-009  0.8931284E+02  0.7818608E-02  0.1304524E+00
          1   -1    0    0  501    0  0.00000000000E+00  0.00000000000E+00  0.16219324724E+03  0.16219324732E+03  0.50400000000E-02 0. -1.
         -1   -1    0    0    0  501 -0.00000000000E+00 -0.00000000000E+00 -0.12295183942E+02  0.12295184975E+02  0.50400000000E-02 0.  1.
         23    2    1    2    0    0  0.00000000000E+00  0.00000000000E+00  0.14989806330E+03  0.17448843230E+03  0.89312841314E+02 0.  0.
    9000005    2    3    3    0    0  0.29843294760E+01  0.36389701877E+02  0.12454948923E+03  0.13003995839E+03  0.80435617536E+01 0.  0.
         22    1    3    3    0    0 -0.29843294760E+01 -0.36389701877E+02  0.25348574073E+02  0.44448473907E+02  0.00000000000E+00 0.  1.
         22    1    4    4    0    0 -0.21804409336E+01  0.21190672914E+02  0.68339287572E+02  0.71582519983E+02  0.00000000000E+00 0. -1.
         22    1    4    4    0    0  0.51647704096E+01  0.15199028963E+02  0.56210201657E+02  0.58457438407E+02  0.00000000000E+00 0. -1.
<mgrwt>
<rscale>  0 0.89312841E+02</rscale>
<asrwt>0</asrwt>
<pdfrwt beam="1">  1        1 0.24952805E-01 0.89312841E+02</pdfrwt>
<pdfrwt beam="2">  1       -1 0.18915670E-02 0.89312841E+02</pdfrwt>
<totfact> 0.12026322E+05</totfact>
</mgrwt>
</event>
<event>
 7    1  0.3565607E-009  0.9209150E+02  0.7818608E-02  0.1297864E+00
         -1   -1    0    0    0  501 -0.00000000000E+00  0.00000000000E+00  0.18551922749E+03  0.18551922756E+03  0.50400000000E-02 0.  1.
          1   -1    0    0  501    0  0.00000000000E+00 -0.00000000000E+00 -0.11428525102E+02  0.11428526213E+02  0.50400000000E-02 0. -1.
         23    2    1    2    0    0  0.00000000000E+00  0.00000000000E+00  0.17409070239E+03  0.19694775377E+03  0.92091503722E+02 0.  0.
    9000005    2    3    3    0    0 -0.21418685311E+02 -0.20457784931E+02  0.16134231637E+03  0.16470178672E+03  0.14766667023E+02 0.  0.
         22    1    3    3    0    0  0.21418685311E+02  0.20457784931E+02  0.12748386023E+02  0.32245967049E+02  0.00000000000E+00 0. -1.
         22    1    4    4    0    0  0.67257066724E+00 -0.13053330053E+01  0.11554034901E+01  0.18684760588E+01  0.00000000000E+00 0. -1.
         22    1    4    4    0    0 -0.22091255978E+02 -0.19152451926E+02  0.16018691288E+03  0.16283331066E+03  0.00000000000E+00 0. -1.
<mgrwt>
<rscale>  0 0.92091504E+02</rscale>
<asrwt>0</asrwt>
<pdfrwt beam="2">  1        1 0.17582349E-02 0.92091504E+02</pdfrwt>
<pdfrwt beam="1">  1       -1 0.28541418E-01 0.92091504E+02</pdfrwt>
<totfact> 0.69072494E+04</totfact>
</mgrwt>
</event>
<event>
 7    1  0.3565607E-009  0.9171523E+02  0.7818608E-02  0.1298750E+00
          1   -1    0    0  501    0  0.00000000000E+00  0.00000000000E+00  0.62237450515E+02  0.62237450719E+02  0.50400000000E-02 0. -1.
         -1   -1    0    0    0  501 -0.00000000000E+00 -0.00000000000E+00 -0.33788675593E+02  0.33788675969E+02  0.50400000000E-02 0.  1.
         23    2    1    2    0    0  0.35527136788E-14  0.35527136788E-14  0.28448774922E+02  0.96026126689E+02  0.91715234352E+02 0.  0.
    9000005    2    3    3    0    0  0.20286066399E+02  0.24870457898E+02  0.48306151820E+02  0.58285173028E+02  0.57976654994E+01 0.  0.
         22    1    3    3    0    0 -0.20286066399E+02 -0.24870457898E+02 -0.19857376898E+02  0.37740953661E+02  0.00000000000E+00 0.  1.
         22    1    4    4    0    0  0.14815509598E+02  0.18786997664E+02  0.31150508971E+02  0.39278554137E+02  0.00000000000E+00 0. -1.
         22    1    4    4    0    0  0.54705568002E+01  0.60834602332E+01  0.17155642848E+02  0.19006618891E+02  0.00000000000E+00 0. -1.
<mgrwt>
<rscale>  0 0.91715234E+02</rscale>
<asrwt>0</asrwt>
<pdfrwt beam="1">  1        1 0.95749924E-02 0.91715234E+02</pdfrwt>
<pdfrwt beam="2">  1       -1 0.51982578E-02 0.91715234E+02</pdfrwt>
<totfact> 0.95337973E+04</totfact>
</mgrwt>
</event>
<event>
 7    1  0.3565607E-009  0.9152741E+02  0.7818608E-02  0.1299194E+00
          1   -1    0    0  501    0  0.00000000000E+00  0.00000000000E+00  0.10054839825E+03  0.10054839838E+03  0.50400000000E-02 0. -1.
         -1   -1    0    0    0  501 -0.00000000000E+00 -0.00000000000E+00 -0.20828941711E+02  0.20828942321E+02  0.50400000000E-02 0.  1.
         23    2    1    2    0    0  0.00000000000E+00  0.35527136788E-14  0.79719456542E+02  0.12137734070E+03  0.91527411655E+02 0.  0.
    9000005    2    3    3    0    0  0.32718446524E+02 -0.20413362301E+02  0.77548643386E+01  0.39731124411E+02  0.55876849164E+01 0.  0.
         22    1    3    3    0    0 -0.32718446524E+02  0.20413362301E+02  0.71964592204E+02  0.81646216289E+02  0.00000000000E+00 0. -1.
         22    1    4    4    0    0  0.16324645252E+01 -0.13241371950E+01  0.18033891562E+01  0.27695653424E+01  0.00000000000E+00 0.  1.
         22    1    4    4    0    0  0.31085981999E+02 -0.19089225106E+02  0.59514751823E+01  0.36961559069E+02  0.00000000000E+00 0.  1.
<mgrwt>
<rscale>  0 0.91527412E+02</rscale>
<asrwt>0</asrwt>
<pdfrwt beam="1">  1        1 0.15468985E-01 0.91527412E+02</pdfrwt>
<pdfrwt beam="2">  1       -1 0.32044526E-02 0.91527412E+02</pdfrwt>
<totfact> 0.10345766E+05</totfact>
</mgrwt>
</event>
<event>
 7    1  0.3565607E-009  0.8995253E+02  0.7818608E-02  0.1302967E+00
         -1   -1    0    0    0  501 -0.00000000000E+00  0.00000000000E+00  0.29706025659E+02  0.29706026087E+02  0.50400000000E-02 0.  1.
          1   -1    0    0  501    0  0.00000000000E+00 -0.00000000000E+00 -0.68096091187E+02  0.68096091374E+02  0.50400000000E-02 0. -1.
         23    2    1    2    0    0  0.00000000000E+00  0.00000000000E+00 -0.38390065528E+02  0.97802117461E+02  0.89952526638E+02 0.  0.
    9000005    2    3    3    0    0 -0.28420439326E+02  0.26118109472E+02  0.58833763495E+01  0.39065291963E+02  0.12672430543E+01 0.  0.
         22    1    3    3    0    0  0.28420439326E+02 -0.26118109472E+02 -0.44273441877E+02  0.58736825498E+02  0.00000000000E+00 0. -1.
         22    1    4    4    0    0 -0.16867612388E+02  0.14809122347E+02  0.30535066716E+01  0.22652822239E+02  0.00000000000E+00 0.  1.
         22    1    4    4    0    0 -0.11552826938E+02  0.11308987125E+02  0.28298696780E+01  0.16412469724E+02  0.00000000000E+00 0.  1.
<mgrwt>
<rscale>  0 0.89952527E+02</rscale>
<asrwt>0</asrwt>
<pdfrwt beam="2">  1        1 0.10476322E-01 0.89952527E+02</pdfrwt>
<pdfrwt beam="1">  1       -1 0.45701579E-02 0.89952527E+02</pdfrwt>
<totfact> 0.10197815E+05</totfact>
</mgrwt>
</event>
<event>
 7    1  0.3565607E-009  0.9203501E+02  0.7818608E-02  0.1297997E+00
         -1   -1    0    0    0  501 -0.00000000000E+00  0.00000000000E+00  0.39892415372E+03  0.39892415375E+03  0.50400000000E-02 0.  1.
          1   -1    0    0  501    0  0.00000000000E+00 -0.00000000000E+00 -0.53083027029E+01  0.53083050955E+01  0.50400000000E-02 0. -1.
         23    2    1    2    0    0  0.00000000000E+00 -0.17763568394E-14  0.39361585101E+03  0.40423245885E+03  0.92035007545E+02 0.  0.
    9000005    2    3    3    0    0 -0.17181875078E+02  0.12635748799E+02  0.37552352086E+03  0.37626441656E+03  0.10105318900E+02 0.  0.
         22    1    3    3    0    0  0.17181875078E+02 -0.12635748799E+02  0.18092330155E+02  0.27968042286E+02  0.00000000000E+00 0. -1.
         22    1    4    4    0    0 -0.15691272592E+02  0.13579450541E+02  0.29837856582E+03  0.29909929130E+03  0.00000000000E+00 0.  1.
         22    1    4    4    0    0 -0.14906024857E+01 -0.94370174253E+00  0.77144955039E+02  0.77165125262E+02  0.00000000000E+00 0.  1.
<mgrwt>
<rscale>  0 0.92035008E+02</rscale>
<asrwt>0</asrwt>
<pdfrwt beam="2">  1        1 0.81666169E-03 0.92035008E+02</pdfrwt>
<pdfrwt beam="1">  1       -1 0.61372981E-01 0.92035008E+02</pdfrwt>
<totfact> 0.52067348E+04</totfact>
</mgrwt>
</event>
<event>
 7    1  0.3565607E-009  0.7527581E+02  0.7818608E-02  0.1343019E+00
          1   -1    0    0  501    0  0.00000000000E+00  0.00000000000E+00  0.24797757418E+02  0.24797757930E+02  0.50400000000E-02 0. -1.
         -1   -1    0    0    0  501 -0.00000000000E+00 -0.00000000000E+00 -0.57126612329E+02  0.57126612552E+02  0.50400000000E-02 0.  1.
         23    2    1    2    0    0  0.00000000000E+00  0.00000000000E+00 -0.32328854911E+02  0.81924370482E+02  0.75275810317E+02 0.  0.
    9000005    2    3    3    0    0  0.14807180188E+02 -0.18949965052E+02 -0.47557723714E+02  0.53459089777E+02  0.42170409544E+01 0.  0.
         22    1    3    3    0    0 -0.14807180188E+02  0.18949965052E+02  0.15228868802E+02  0.28465280704E+02  0.00000000000E+00 0. -1.
         22    1    4    4    0    0  0.86590103791E+00 -0.34931844055E+01 -0.72460421743E+01  0.80905654369E+01  0.00000000000E+00 0.  1.
         22    1    4    4    0    0  0.13941279151E+02 -0.15456780646E+02 -0.40311681539E+02  0.45368524340E+02  0.00000000000E+00 0.  1.
<mgrwt>
<rscale>  0 0.75275810E+02</rscale>
<asrwt>0</asrwt>
<pdfrwt beam="1">  1        1 0.38150397E-02 0.75275810E+02</pdfrwt>
<pdfrwt beam="2">  1       -1 0.87887096E-02 0.75275810E+02</pdfrwt>
<totfact> 0.14502719E+05</totfact>
</mgrwt>
</event>
<event>
 7    1  0.3565607E-009  0.9141680E+02  0.7818608E-02  0.1299457E+00
          1   -1    0    0  501    0  0.00000000000E+00  0.00000000000E+00  0.14956646788E+03  0.14956646796E+03  0.50400000000E-02 0. -1.
         -1   -1    0    0    0  501 -0.00000000000E+00 -0.00000000000E+00 -0.13968757501E+02  0.13968758411E+02  0.50400000000E-02 0.  1.
         23    2    1    2    0    0  0.17763568394E-14  0.00000000000E+00  0.13559771038E+03  0.16353522637E+03  0.91416799363E+02 0.  0.
    9000005    2    3    3    0    0 -0.10369201042E+02 -0.25497844092E+02  0.13223213147E+03  0.13580460242E+03  0.14138354223E+02 0.  0.
         22    1    3    3    0    0  0.10369201042E+02  0.25497844092E+02  0.33655789017E+01  0.27730623955E+02  0.00000000000E+00 0.  1.
         22    1    4    4    0    0 -0.93168081845E+00 -0.13765633321E+02  0.88118842334E+02  0.89192438380E+02  0.00000000000E+00 0.  1.
         22    1    4    4    0    0 -0.94375202239E+01 -0.11732210771E+02  0.44113289140E+02  0.46612164038E+02  0.00000000000E+00 0.  1.
<mgrwt>
<rscale>  0 0.91416799E+02</rscale>
<asrwt>0</asrwt>
<pdfrwt beam="1">  1        1 0.23010226E-01 0.91416799E+02</pdfrwt>
<pdfrwt beam="2">  1       -1 0.21490396E-02 0.91416799E+02</pdfrwt>
<totfact> 0.11128034E+05</totfact>
</mgrwt>
</event>
<event>
 7    1  0.3565607E-009  0.9210671E+02  0.7818608E-02  0.1297829E+00
          1   -1    0    0  501    0  0.00000000000E+00  0.00000000000E+00  0.58178554602E+02  0.58178554821E+02  0.50400000000E-02 0. -1.
         -1   -1    0    0    0  501 -0.00000000000E+00 -0.00000000000E+00 -0.36455209410E+02  0.36455209758E+02  0.50400000000E-02 0.  1.
         23    2    1    2    0    0  0.35527136788E-14 -0.35527136788E-14  0.21723345193E+02  0.94633764579E+02  0.92106708073E+02 0.  0.
    9000005    2    3    3    0    0 -0.28681214763E+02  0.24145935436E+02  0.37210489165E+02  0.54069125954E+02  0.11541732936E+02 0.  0.
         22    1    3    3    0    0  0.28681214763E+02 -0.24145935436E+02 -0.15487143972E+02  0.40564638625E+02  0.00000000000E+00 0. -1.
         22    1    4    4    0    0 -0.28735071428E+02  0.19924757846E+02  0.33926175113E+02  0.48720485045E+02  0.00000000000E+00 0. -1.
         22    1    4    4    0    0  0.53856664686E-01  0.42211775900E+01  0.32843140518E+01  0.53486409093E+01  0.00000000000E+00 0. -1.
<mgrwt>
<rscale>  0 0.92106708E+02</rscale>
<asrwt>0</asrwt>
<pdfrwt beam="1">  1        1 0.89505469E-02 0.92106708E+02</pdfrwt>
<pdfrwt beam="2">  1       -1 0.56084938E-02 0.92106708E+02</pdfrwt>
<totfact> 0.93253356E+04</totfact>
</mgrwt>
</event>
<event>
 7    1  0.3565607E-009  0.8919101E+02  0.7818608E-02  0.1304823E+00
         -1   -1    0    0    0  501 -0.00000000000E+00  0.00000000000E+00  0.26704554437E+03  0.26704554442E+03  0.50400000000E-02 0.  1.
          1   -1    0    0  501    0  0.00000000000E+00 -0.00000000000E+00 -0.74472652567E+01  0.74472669621E+01  0.50400000000E-02 0. -1.
         23    2    1    2    0    0 -0.35527136788E-14 -0.35527136788E-14  0.25959827911E+03  0.27449281138E+03  0.89191014012E+02 0.  0.
    9000005    2    3    3    0    0  0.28057111870E+02  0.24759380319E+02  0.20325279944E+03  0.20685375816E+03  0.87491911788E+01 0.  0.
         22    1    3    3    0    0 -0.28057111870E+02 -0.24759380319E+02  0.56345479675E+02  0.67639053217E+02  0.00000000000E+00 0. -1.
         22    1    4    4    0    0  0.13961798267E+02  0.15546474102E+02  0.13162051101E+03  0.13326883952E+03  0.00000000000E+00 0. -1.
         22    1    4    4    0    0  0.14095313603E+02  0.92129062170E+01  0.71632288429E+02  0.73584918646E+02  0.00000000000E+00 0. -1.
<mgrwt>
<rscale>  0 0.89191014E+02</rscale>
<asrwt>0</asrwt>
<pdfrwt beam="2">  1        1 0.11457332E-02 0.89191014E+02</pdfrwt>
<pdfrwt beam="1">  1       -1 0.41083932E-01 0.89191014E+02</pdfrwt>
<totfact> 0.67036255E+04</totfact>
</mgrwt>
</event>
<event>
 7    1  0.3565607E-009  0.9225901E+02  0.7818608E-02  0.1297472E+00
         -1   -1    0    0    0  501 -0.00000000000E+00  0.00000000000E+00  0.48451378400E+02  0.48451378662E+02  0.50400000000E-02 0.  1.
          1   -1    0    0  501    0  0.00000000000E+00 -0.00000000000E+00 -0.43918895986E+02  0.43918896275E+02  0.50400000000E-02 0. -1.
         23    2    1    2    0    0  0.00000000000E+00  0.00000000000E+00  0.45324824137E+01  0.92370274937E+02  0.92259006580E+02 0.  0.
    9000005    2    3    3    0    0  0.24156483382E+02 -0.20759576196E+01  0.40556030712E+02  0.48947454652E+02  0.12775617416E+02 0.  0.
         22    1    3    3    0    0 -0.24156483382E+02  0.20759576196E+01 -0.36023548299E+02  0.43422820285E+02  0.00000000000E+00 0. -1.
         22    1    4    4    0    0  0.20147061976E+02  0.16658320530E+01  0.23333468822E+02  0.30872801460E+02  0.00000000000E+00 0.  1.
         22    1    4    4    0    0  0.40094214061E+01 -0.37417896726E+01  0.17222561891E+02  0.18074653193E+02  0.00000000000E+00 0.  1.
<mgrwt>
<rscale>  0 0.92259007E+02</rscale>
<asrwt>0</asrwt>
<pdfrwt beam="2">  1        1 0.67567532E-02 0.92259007E+02</pdfrwt>
<pdfrwt beam="1">  1       -1 0.74540583E-02 0.92259007E+02</pdfrwt>
<totfact> 0.88947987E+04</totfact>
</mgrwt>
</event>
<event>
 7    1  0.3565607E-009  0.9200495E+02  0.7818608E-02  0.1298068E+00
          1   -1    0    0  501    0  0.00000000000E+00  0.00000000000E+00  0.82346128106E+03  0.82346128108E+03  0.50400000000E-02 0. -1.
         -1   -1    0    0    0  501 -0.00000000000E+00 -0.00000000000E+00 -0.25699153627E+01  0.25699203048E+01  0.50400000000E-02 0.  1.
         23    2    1    2    0    0  0.00000000000E+00  0.00000000000E+00  0.82089136570E+03  0.82603120138E+03  0.92004953005E+02 0.  0.
    9000005    2    3    3    0    0 -0.15940235544E+02  0.19711050987E+02  0.75507584455E+03  0.75550248762E+03  0.13642374858E+01 0.  0.
         22    1    3    3    0    0  0.15940235544E+02 -0.19711050987E+02  0.65815521155E+02  0.70528713764E+02  0.00000000000E+00 0.  1.
         22    1    4    4    0    0 -0.96280988820E+01  0.10857902584E+02  0.42727842542E+03  0.42752479129E+03  0.00000000000E+00 0. -1.
         22    1    4    4    0    0 -0.63121366615E+01  0.88531484032E+01  0.32779741913E+03  0.32797769633E+03  0.00000000000E+00 0. -1.
<mgrwt>
<rscale>  0 0.92004953E+02</rscale>
<asrwt>0</asrwt>
<pdfrwt beam="1">  1        1 0.12668628E+00 0.92004953E+02</pdfrwt>
<pdfrwt beam="2">  1       -1 0.39537221E-03 0.92004953E+02</pdfrwt>
<totfact> 0.13757399E+05</totfact>
</mgrwt>
</event>
<event>
 7    1  0.3565607E-009  0.9148967E+02  0.7818608E-02  0.1299284E+00
         -1   -1    0    0    0  501 -0.00000000000E+00  0.00000000000E+00  0.15836809134E+03  0.15836809142E+03  0.50400000000E-02 0.  1.
          1   -1    0    0  501    0  0.00000000000E+00 -0.00000000000E+00 -0.13213456628E+02  0.13213457589E+02  0.50400000000E-02 0. -1.
         23    2    1    2    0    0 -0.88817841970E-15  0.00000000000E+00  0.14515463471E+03  0.17158154901E+03  0.91489671451E+02 0.  0.
    9000005    2    3    3    0    0  0.60184081462E+01  0.34646660280E+02  0.12665784370E+03  0.13184814263E+03  0.10252367413E+02 0.  0.
         22    1    3    3    0    0 -0.60184081462E+01 -0.34646660280E+02  0.18496791009E+02  0.39733406383E+02  0.00000000000E+00 0. -1.
         22    1    4    4    0    0  0.82754563421E+01  0.31806376367E+02  0.11026602813E+03  0.11505966154E+03  0.00000000000E+00 0. -1.
         22    1    4    4    0    0 -0.22570481959E+01  0.28402839125E+01  0.16391815579E+02  0.16788481088E+02  0.00000000000E+00 0. -1.
<mgrwt>
<rscale>  0 0.91489671E+02</rscale>
<asrwt>0</asrwt>
<pdfrwt beam="2">  1        1 0.20328395E-02 0.91489671E+02</pdfrwt>
<pdfrwt beam="1">  1       -1 0.24364323E-01 0.91489671E+02</pdfrwt>
<totfact> 0.73172636E+04</totfact>
</mgrwt>
</event>
<event>
 7    1  0.3565607E-009  0.9239615E+02  0.7818608E-02  0.1297151E+00
         -1   -1    0    0    0  501 -0.00000000000E+00  0.00000000000E+00  0.43817811686E+01  0.43817840672E+01  0.50400000000E-02 0.  1.
          1   -1    0    0  501    0  0.00000000000E+00 -0.00000000000E+00 -0.48707618472E+03  0.48707618475E+03  0.50400000000E-02 0. -1.
         23    2    1    2    0    0 -0.88817841970E-15  0.71054273576E-14 -0.48269440356E+03  0.49145796882E+03  0.92396146512E+02 0.  0.
    9000005    2    3    3    0    0  0.75638144079E+01 -0.42079587942E+02 -0.33037515679E+03  0.33325222952E+03  0.90222641271E+01 0.  0.
         22    1    3    3    0    0 -0.75638144079E+01  0.42079587942E+02 -0.15231924677E+03  0.15820573930E+03  0.00000000000E+00 0.  1.
         22    1    4    4    0    0  0.92933216233E+01 -0.27922861046E+02 -0.22484465051E+03  0.22676236209E+03  0.00000000000E+00 0.  1.
         22    1    4    4    0    0 -0.17295072153E+01 -0.14156726896E+02 -0.10553050627E+03  0.10648986743E+03  0.00000000000E+00 0.  1.
<mgrwt>
<rscale>  0 0.92396147E+02</rscale>
<asrwt>0</asrwt>
<pdfrwt beam="2">  1        1 0.74934755E-01 0.92396147E+02</pdfrwt>
<pdfrwt beam="1">  1       -1 0.67412079E-03 0.92396147E+02</pdfrwt>
<totfact> 0.13401503E+05</totfact>
</mgrwt>
</event>
<event>
 6    1  0.3565607E-009  0.1412071E+03  0.7818608E-02  0.1211714E+00
         -1   -1    0    0    0  501 -0.00000000000E+00  0.00000000000E+00  0.63379071130E+01  0.63379091169E+01  0.50400000000E-02 0.  1.
          1   -1    0    0  501    0  0.00000000000E+00 -0.00000000000E+00 -0.78651496737E+03  0.78651496738E+03  0.50400000000E-02 0. -1.
    9000005    2    1    2    0    0  0.21579714484E+02  0.46294944341E+02 -0.66244283570E+03  0.66451639073E+03  0.11942237167E+02 0.  0.
         22    1    1    2    0    0 -0.21579714484E+02 -0.46294944341E+02 -0.11773422455E+03  0.12833648577E+03  0.00000000000E+00 0.  1.
         22    1    3    3    0    0  0.74949376675E+00  0.96084982110E+01 -0.87905572524E+02  0.88432316828E+02  0.00000000000E+00 0. -1.
         22    1    3    3    0    0  0.20830220718E+02  0.36686446130E+02 -0.57453726317E+03  0.57608407390E+03  0.00000000000E+00 0. -1.
<mgrwt>
<rscale>  0 0.14120708E+03</rscale>
<asrwt>0</asrwt>
<pdfrwt beam="2">  1        1 0.12100223E+00 0.14120708E+03</pdfrwt>
<pdfrwt beam="1">  1       -1 0.97506341E-03 0.14120708E+03</pdfrwt>
<totfact> 0.43450464E+04</totfact>
</mgrwt>
</event>
<event>
 7    1  0.3565607E-009  0.9098359E+02  0.7818608E-02  0.1300487E+00
         -1   -1    0    0    0  501 -0.00000000000E+00  0.00000000000E+00  0.18095745950E+02  0.18095746652E+02  0.50400000000E-02 0. -1.
          1   -1    0    0  501    0  0.00000000000E+00 -0.00000000000E+00 -0.11436408226E+03  0.11436408237E+03  0.50400000000E-02 0.  1.
         23    2    1    2    0    0  0.00000000000E+00  0.11102230246E-15 -0.96268336312E+02  0.13245982903E+03  0.90983590439E+02 0.  0.
    9000005    2    3    3    0    0  0.44520830672E+02 -0.60536106355E+00 -0.46653105895E+02  0.65795431367E+02  0.13040539614E+02 0.  0.
         22    1    3    3    0    0 -0.44520830672E+02  0.60536106355E+00 -0.49615230418E+02  0.66664397658E+02  0.00000000000E+00 0.  1.
         22    1    4    4    0    0  0.36851758037E+02 -0.32521390896E+01 -0.31421942547E+02  0.48538303972E+02  0.00000000000E+00 0. -1.
         22    1    4    4    0    0  0.76690726350E+01  0.26467780261E+01 -0.15231163348E+02  0.17257127395E+02  0.00000000000E+00 0. -1.
<mgrwt>
<rscale>  0 0.90983590E+02</rscale>
<asrwt>0</asrwt>
<pdfrwt beam="2">  1        1 0.17594474E-01 0.90983590E+02</pdfrwt>
<pdfrwt beam="1">  1       -1 0.27839610E-02 0.90983590E+02</pdfrwt>
<totfact> 0.10746508E+05</totfact>
</mgrwt>
</event>
<event>
 7    1  0.3565607E-009  0.9164915E+02  0.7818608E-02  0.1298906E+00
         -1   -1    0    0    0  501 -0.00000000000E+00  0.00000000000E+00  0.46777191882E+01  0.46777219033E+01  0.50400000000E-02 0.  1.
          1   -1    0    0  501    0  0.00000000000E+00 -0.00000000000E+00 -0.44891344503E+03  0.44891344505E+03  0.50400000000E-02 0. -1.
         23    2    1    2    0    0  0.00000000000E+00  0.00000000000E+00 -0.44423572584E+03  0.45359116696E+03  0.91649149648E+02 0.  0.
    9000005    2    3    3    0    0  0.39209870869E+02 -0.18091826952E+02 -0.28873202803E+03  0.29220303788E+03  0.12316783612E+02 0.  0.
         22    1    3    3    0    0 -0.39209870869E+02  0.18091826952E+02 -0.15550369780E+03  0.16138812908E+03  0.00000000000E+00 0.  1.
         22    1    4    4    0    0  0.25700855632E+02 -0.16044422088E+02 -0.22439525828E+03  0.22643142317E+03  0.00000000000E+00 0. -1.
         22    1    4    4    0    0  0.13509015237E+02 -0.20474048638E+01 -0.64336769752E+02  0.65771614709E+02  0.00000000000E+00 0. -1.
<mgrwt>
<rscale>  0 0.91649150E+02</rscale>
<asrwt>0</asrwt>
<pdfrwt beam="2">  1        1 0.69063573E-01 0.91649150E+02</pdfrwt>
<pdfrwt beam="1">  1       -1 0.71964967E-03 0.91649150E+02</pdfrwt>
<totfact> 0.13543970E+05</totfact>
</mgrwt>
</event>
<event>
 7    1  0.3565607E-009  0.9108142E+02  0.7818608E-02  0.1300254E+00
         -1   -1    0    0    0  501 -0.00000000000E+00  0.00000000000E+00  0.57921582550E+02  0.57921582769E+02  0.50400000000E-02 0.  1.
          1   -1    0    0  501    0  0.00000000000E+00 -0.00000000000E+00 -0.35806275379E+02  0.35806275734E+02  0.50400000000E-02 0. -1.
         23    2    1    2    0    0 -0.17763568394E-14 -0.44408920985E-15  0.22115307170E+02  0.93727858503E+02  0.91081417690E+02 0.  0.
    9000005    2    3    3    0    0 -0.12016441605E+02 -0.25647277753E+01  0.55230289819E+02  0.58406833982E+02  0.14491398996E+02 0.  0.
         22    1    3    3    0    0  0.12016441605E+02  0.25647277753E+01 -0.33114982649E+02  0.35321024522E+02  0.00000000000E+00 0. -1.
         22    1    4    4    0    0 -0.11063683354E+02  0.22548202998E+00  0.18490197207E+02  0.21548626969E+02  0.00000000000E+00 0. -1.
         22    1    4    4    0    0 -0.95275825170E+00 -0.27902098053E+01  0.36740092612E+02  0.36858207013E+02  0.00000000000E+00 0. -1.
<mgrwt>
<rscale>  0 0.91081418E+02</rscale>
<asrwt>0</asrwt>
<pdfrwt beam="2">  1        1 0.55086578E-02 0.91081418E+02</pdfrwt>
<pdfrwt beam="1">  1       -1 0.89110127E-02 0.91081418E+02</pdfrwt>
<totfact> 0.89404136E+04</totfact>
</mgrwt>
</event>
<event>
 7    1  0.3565607E-009  0.9115988E+02  0.7818608E-02  0.1300067E+00
         -1   -1    0    0    0  501 -0.00000000000E+00  0.00000000000E+00  0.22974076365E+02  0.22974076917E+02  0.50400000000E-02 0.  1.
          1   -1    0    0  501    0  0.00000000000E+00 -0.00000000000E+00 -0.90429350890E+02  0.90429351031E+02  0.50400000000E-02 0. -1.
         23    2    1    2    0    0  0.00000000000E+00  0.00000000000E+00 -0.67455274526E+02  0.11340342795E+03  0.91159878286E+02 0.  0.
    9000005    2    3    3    0    0 -0.40296096188E+02 -0.16849436077E+02 -0.44834618601E+02  0.64216306274E+02  0.14349637705E+02 0.  0.
         22    1    3    3    0    0  0.40296096188E+02  0.16849436077E+02 -0.22620655925E+02  0.49187121674E+02  0.00000000000E+00 0.  1.
         22    1    4    4    0    0 -0.31362202525E+02 -0.64571868167E+01 -0.28237139386E+02  0.42692142714E+02  0.00000000000E+00 0.  1.
         22    1    4    4    0    0 -0.89338936630E+01 -0.10392249260E+02 -0.16597479215E+02  0.21524163560E+02  0.00000000000E+00 0.  1.
<mgrwt>
<rscale>  0 0.91159878E+02</rscale>
<asrwt>0</asrwt>
<pdfrwt beam="2">  1        1 0.13912208E-01 0.91159878E+02</pdfrwt>
<pdfrwt beam="1">  1       -1 0.35344734E-02 0.91159878E+02</pdfrwt>
<totfact> 0.10279201E+05</totfact>
</mgrwt>
</event>
<event>
 7    1  0.3565607E-009  0.9181536E+02  0.7818608E-02  0.1298514E+00
         -1   -1    0    0    0  501 -0.00000000000E+00  0.00000000000E+00  0.14755367570E+02  0.14755368431E+02  0.50400000000E-02 0.  1.
          1   -1    0    0  501    0  0.00000000000E+00 -0.00000000000E+00 -0.14283040898E+03  0.14283040907E+03  0.50400000000E-02 0. -1.
         23    2    1    2    0    0  0.00000000000E+00  0.38857805862E-15 -0.12807504141E+03  0.15758577750E+03  0.91815363845E+02 0.  0.
    9000005    2    3    3    0    0  0.42123169213E+02  0.34254267607E+00 -0.94588226664E+02  0.10377271698E+03  0.68822559443E+01 0.  0.
         22    1    3    3    0    0 -0.42123169213E+02 -0.34254267607E+00 -0.33486814742E+02  0.53813060512E+02  0.00000000000E+00 0.  1.
         22    1    4    4    0    0  0.36232618102E+02  0.25180014157E+01 -0.82821025252E+02  0.90434867001E+02  0.00000000000E+00 0.  1.
         22    1    4    4    0    0  0.58905511115E+01 -0.21754587396E+01 -0.11767201412E+02  0.13337849984E+02  0.00000000000E+00 0.  1.
<mgrwt>
<rscale>  0 0.91815364E+02</rscale>
<asrwt>0</asrwt>
<pdfrwt beam="2">  1        1 0.21973908E-01 0.91815364E+02</pdfrwt>
<pdfrwt beam="1">  1       -1 0.22700567E-02 0.91815364E+02</pdfrwt>
<totfact> 0.10905526E+05</totfact>
</mgrwt>
</event>
<event>
 7    1  0.3565607E-009  0.8759296E+02  0.7818608E-02  0.1308788E+00
         -1   -1    0    0    0  501 -0.00000000000E+00  0.00000000000E+00  0.54467167229E+01  0.54467190548E+01  0.50400000000E-02 0.  1.
          1   -1    0    0  501    0  0.00000000000E+00 -0.00000000000E+00 -0.35216287469E+03  0.35216287473E+03  0.50400000000E-02 0. -1.
         23    2    1    2    0    0  0.00000000000E+00  0.00000000000E+00 -0.34671615797E+03  0.35760959378E+03  0.87592964151E+02 0.  0.
    9000005    2    3    3    0    0 -0.22057302824E+02 -0.19362458785E+02 -0.30498861859E+03  0.30659374369E+03  0.10965253427E+02 0.  0.
         22    1    3    3    0    0  0.22057302824E+02  0.19362458785E+02 -0.41727539383E+02  0.51015850096E+02  0.00000000000E+00 0.  1.
         22    1    4    4    0    0 -0.16210468517E+01 -0.33533598481E+01 -0.15406813484E+02  0.15850637744E+02  0.00000000000E+00 0.  1.
         22    1    4    4    0    0 -0.20436255972E+02 -0.16009098937E+02 -0.28958180510E+03  0.29074310594E+03  0.00000000000E+00 0.  1.
<mgrwt>
<rscale>  0 0.87592964E+02</rscale>
<asrwt>0</asrwt>
<pdfrwt beam="2">  1        1 0.54178886E-01 0.87592964E+02</pdfrwt>
<pdfrwt beam="1">  1       -1 0.83795688E-03 0.87592964E+02</pdfrwt>
<totfact> 0.14678811E+05</totfact>
</mgrwt>
</event>
<event>
 7    1  0.3565607E-009  0.6246571E+02  0.7818608E-02  0.1387766E+00
         -1   -1    0    0    0  501 -0.00000000000E+00  0.00000000000E+00  0.27470151882E+01  0.27470198117E+01  0.50400000000E-02 0.  1.
          1   -1    0    0  501    0  0.00000000000E+00 -0.00000000000E+00 -0.35510919414E+03  0.35510919418E+03  0.50400000000E-02 0. -1.
         23    2    1    2    0    0  0.44408920985E-15  0.00000000000E+00 -0.35236217896E+03  0.35785621399E+03  0.62465708463E+02 0.  0.
    9000005    2    3    3    0    0 -0.20466564651E+01  0.23112086157E+02 -0.29272519308E+03  0.29386459412E+03  0.11401915865E+02 0.  0.
         22    1    3    3    0    0  0.20466564651E+01 -0.23112086157E+02 -0.59636985876E+02  0.63991619870E+02  0.00000000000E+00 0. -1.
         22    1    4    4    0    0 -0.40322188767E+01  0.16719669512E+02 -0.25260581410E+03  0.25319064646E+03  0.00000000000E+00 0. -1.
         22    1    4    4    0    0  0.19855624116E+01  0.63924166449E+01 -0.40119378978E+02  0.40673947660E+02  0.00000000000E+00 0. -1.
<mgrwt>
<rscale>  0 0.62465708E+02</rscale>
<asrwt>0</asrwt>
<pdfrwt beam="2">  1        1 0.54632148E-01 0.62465708E+02</pdfrwt>
<pdfrwt beam="1">  1       -1 0.42261836E-03 0.62465708E+02</pdfrwt>
<totfact> 0.35423618E+05</totfact>
</mgrwt>
</event>
<event>
 7    1  0.3565607E-009  0.9098852E+02  0.7818608E-02  0.1300475E+00
         -1   -1    0    0    0  501 -0.00000000000E+00  0.00000000000E+00  0.38895481153E+02  0.38895481479E+02  0.50400000000E-02 0.  1.
          1   -1    0    0  501    0  0.00000000000E+00 -0.00000000000E+00 -0.53212547063E+02  0.53212547301E+02  0.50400000000E-02 0. -1.
         23    2    1    2    0    0  0.00000000000E+00  0.00000000000E+00 -0.14317065910E+02  0.92108028781E+02  0.90988518999E+02 0.  0.
    9000005    2    3    3    0    0  0.22738867845E+02 -0.38809120764E+02 -0.41145111261E+01  0.45985408631E+02  0.86327654740E+01 0.  0.
         22    1    3    3    0    0 -0.22738867845E+02  0.38809120764E+02 -0.10202554783E+02  0.46122620150E+02  0.00000000000E+00 0.  1.
         22    1    4    4    0    0  0.75761017819E+01 -0.67405516072E+01 -0.26568960359E+01  0.10482912321E+02  0.00000000000E+00 0.  1.
         22    1    4    4    0    0  0.15162766063E+02 -0.32068569157E+02 -0.14576150902E+01  0.35502496310E+02  0.00000000000E+00 0.  1.
<mgrwt>
<rscale>  0 0.90988519E+02</rscale>
<asrwt>0</asrwt>
<pdfrwt beam="2">  1        1 0.81865458E-02 0.90988519E+02</pdfrwt>
<pdfrwt beam="1">  1       -1 0.59839202E-02 0.90988519E+02</pdfrwt>
<totfact> 0.95191602E+04</totfact>
</mgrwt>
</event>
<event>
 7    1  0.3565607E-009  0.9134373E+02  0.7818608E-02  0.1299630E+00
         -1   -1    0    0    0  501 -0.00000000000E+00  0.00000000000E+00  0.29282212302E+02  0.29282212735E+02  0.50400000000E-02 0.  1.
          1   -1    0    0  501    0  0.00000000000E+00 -0.00000000000E+00 -0.71235022507E+02  0.71235022685E+02  0.50400000000E-02 0. -1.
         23    2    1    2    0    0  0.00000000000E+00  0.00000000000E+00 -0.41952810205E+02  0.10051723542E+03  0.91343726289E+02 0.  0.
    9000005    2    3    3    0    0 -0.12428900938E+02 -0.26233023613E+02 -0.58688277849E+02  0.67010146862E+02  0.14261722165E+02 0.  0.
         22    1    3    3    0    0  0.12428900938E+02  0.26233023613E+02  0.16735467644E+02  0.33507088559E+02  0.00000000000E+00 0.  1.
         22    1    4    4    0    0 -0.12840265820E+02 -0.16423747571E+02 -0.48843648424E+02  0.53106627665E+02  0.00000000000E+00 0. -1.
         22    1    4    4    0    0  0.41136488133E+00 -0.98092760420E+01 -0.98446294257E+01  0.13903519197E+02  0.00000000000E+00 0. -1.
<mgrwt>
<rscale>  0 0.91343726E+02</rscale>
<asrwt>0</asrwt>
<pdfrwt beam="2">  1        1 0.10959234E-01 0.91343726E+02</pdfrwt>
<pdfrwt beam="1">  1       -1 0.45049558E-02 0.91343726E+02</pdfrwt>
<totfact> 0.98436085E+04</totfact>
</mgrwt>
</event>
<event>
 7    1  0.3565607E-009  0.8936520E+02  0.7818608E-02  0.1304396E+00
         -1   -1    0    0    0  501 -0.00000000000E+00  0.00000000000E+00  0.26400799902E+03  0.26400799907E+03  0.50400000000E-02 0.  1.
          1   -1    0    0  501    0  0.00000000000E+00 -0.00000000000E+00 -0.75624023174E+01  0.75624039968E+01  0.50400000000E-02 0. -1.
         23    2    1    2    0    0  0.00000000000E+00  0.35527136788E-14  0.25644559670E+03  0.27157040307E+03  0.89365204374E+02 0.  0.
    9000005    2    3    3    0    0 -0.34378809230E+02  0.22793573103E+02  0.17580022241E+03  0.18098825310E+03  0.12230292677E+02 0.  0.
         22    1    3    3    0    0  0.34378809230E+02 -0.22793573103E+02  0.80645374291E+02  0.90582149971E+02  0.00000000000E+00 0. -1.
         22    1    4    4    0    0 -0.29814256559E+02  0.21430136850E+02  0.16692363940E+03  0.17091413648E+03  0.00000000000E+00 0. -1.
         22    1    4    4    0    0 -0.45645526714E+01  0.13634362534E+01  0.88765830167E+01  0.10074116614E+02  0.00000000000E+00 0. -1.
<mgrwt>
<rscale>  0 0.89365204E+02</rscale>
<asrwt>0</asrwt>
<pdfrwt beam="2">  1        1 0.11634467E-02 0.89365204E+02</pdfrwt>
<pdfrwt beam="1">  1       -1 0.40616614E-01 0.89365204E+02</pdfrwt>
<totfact> 0.66968354E+04</totfact>
</mgrwt>
</event>
<event>
 7    1  0.3565607E-009  0.9187069E+02  0.7818608E-02  0.1298384E+00
          1   -1    0    0  501    0  0.00000000000E+00  0.00000000000E+00  0.74957873415E+03  0.74957873417E+03  0.50400000000E-02 0. -1.
         -1   -1    0    0    0  501 -0.00000000000E+00 -0.00000000000E+00 -0.28149870520E+01  0.28149915639E+01  0.50400000000E-02 0.  1.
         23    2    1    2    0    0  0.71054273576E-14  0.00000000000E+00  0.74676374710E+03  0.75239372573E+03  0.91870694671E+02 0.  0.
    9000005    2    3    3    0    0 -0.42626455202E+02  0.74767575090E+01  0.49915825798E+03  0.50103463036E+03  0.19538989354E+01 0.  0.
         22    1    3    3    0    0  0.42626455202E+02 -0.74767575090E+01  0.24760548911E+03  0.25135909537E+03  0.00000000000E+00 0.  1.
         22    1    4    4    0    0 -0.50142918343E+01  0.10762040033E+01  0.52536995242E+02  0.52786714301E+02  0.00000000000E+00 0.  1.
         22    1    4    4    0    0 -0.37612163368E+02  0.64005535056E+01  0.44662126274E+03  0.44824791606E+03  0.00000000000E+00 0.  1.
<mgrwt>
<rscale>  0 0.91870695E+02</rscale>
<asrwt>0</asrwt>
<pdfrwt beam="1">  1        1 0.11531988E+00 0.91870695E+02</pdfrwt>
<pdfrwt beam="2">  1       -1 0.43307498E-03 0.91870695E+02</pdfrwt>
<totfact> 0.13909286E+05</totfact>
</mgrwt>
</event>
<event>
 7    1  0.3565607E-009  0.8934972E+02  0.7818608E-02  0.1304434E+00
         -1   -1    0    0    0  501 -0.00000000000E+00  0.00000000000E+00  0.17267108866E+03  0.17267108873E+03  0.50400000000E-02 0.  1.
          1   -1    0    0  501    0  0.00000000000E+00 -0.00000000000E+00 -0.11558639821E+02  0.11558640920E+02  0.50400000000E-02 0. -1.
         23    2    1    2    0    0 -0.17763568394E-14  0.00000000000E+00  0.16111244884E+03  0.18422972965E+03  0.89349718061E+02 0.  0.
    9000005    2    3    3    0    0  0.14503712602E+02  0.31901799186E+02  0.13701303074E+03  0.14169898286E+03  0.88288548917E+01 0.  0.
         22    1    3    3    0    0 -0.14503712602E+02 -0.31901799186E+02  0.24099418096E+02  0.42530746797E+02  0.00000000000E+00 0. -1.
         22    1    4    4    0    0  0.54485645838E+01  0.15270680630E+02  0.79900855340E+02  0.81529302873E+02  0.00000000000E+00 0.  1.
         22    1    4    4    0    0  0.90551480178E+01  0.16631118557E+02  0.57112175404E+02  0.60169679984E+02  0.00000000000E+00 0.  1.
<mgrwt>
<rscale>  0 0.89349718E+02</rscale>
<asrwt>0</asrwt>
<pdfrwt beam="2">  1        1 0.17782525E-02 0.89349718E+02</pdfrwt>
<pdfrwt beam="1">  1       -1 0.26564781E-01 0.89349718E+02</pdfrwt>
<totfact> 0.76149759E+04</totfact>
</mgrwt>
</event>
<event>
 7    1  0.3565607E-009  0.9116676E+02  0.7818608E-02  0.1300051E+00
          1   -1    0    0  501    0  0.00000000000E+00  0.00000000000E+00  0.88629295234E+02  0.88629295377E+02  0.50400000000E-02 0. -1.
         -1   -1    0    0    0  501 -0.00000000000E+00 -0.00000000000E+00 -0.23444219268E+02  0.23444219810E+02  0.50400000000E-02 0.  1.
         23    2    1    2    0    0  0.00000000000E+00  0.00000000000E+00  0.65185075965E+02  0.11207351519E+03  0.91166763010E+02 0.  0.
    9000005    2    3    3    0    0 -0.25996339809E+02 -0.29229200532E+02  0.61078064615E+02  0.72741296975E+02  0.55326721724E+01 0.  0.
         22    1    3    3    0    0  0.25996339809E+02  0.29229200532E+02  0.41070113506E+01  0.39332218212E+02  0.00000000000E+00 0.  1.
         22    1    4    4    0    0 -0.18481337891E+02 -0.24192941182E+02  0.47934796720E+02  0.56785587871E+02  0.00000000000E+00 0.  1.
         22    1    4    4    0    0 -0.75150019180E+01 -0.50362593503E+01  0.13143267895E+02  0.15955709105E+02  0.00000000000E+00 0.  1.
<mgrwt>
<rscale>  0 0.91166763E+02</rscale>
<asrwt>0</asrwt>
<pdfrwt beam="1">  1        1 0.13635276E-01 0.91166763E+02</pdfrwt>
<pdfrwt beam="2">  1       -1 0.36068031E-02 0.91166763E+02</pdfrwt>
<totfact> 0.10243664E+05</totfact>
</mgrwt>
</event>
<event>
 7    1  0.4594085E-009  0.9093598E+02  0.7818608E-02  0.1300601E+00
         -1   -1    0    0    0  501 -0.00000000000E+00  0.00000000000E+00  0.19598723462E+01  0.19598788266E+01  0.50400000000E-02 0.  1.
          1   -1    0    0  501    0  0.00000000000E+00 -0.00000000000E+00 -0.10548312275E+04  0.10548312275E+04  0.50400000000E-02 0. -1.
         23    2    1    2    0    0  0.00000000000E+00  0.00000000000E+00 -0.10528713552E+04  0.10567911063E+04  0.90935977110E+02 0.  0.
    9000005    2    3    3    0    0  0.22457111154E+02 -0.17442474719E+02 -0.93420614844E+03  0.93476654713E+03  0.15453416572E+02 0.  0.
         22    1    3    3    0    0 -0.22457111154E+02  0.17442474719E+02 -0.11866520671E+03  0.12202455921E+03  0.00000000000E+00 0.  1.
         22    1    4    4    0    0  0.17253024424E+02 -0.37787903789E+01 -0.47820197652E+03  0.47852803101E+03  0.00000000000E+00 0.  1.
         22    1    4    4    0    0  0.52040867304E+01 -0.13663684340E+02 -0.45600417191E+03  0.45623851612E+03  0.00000000000E+00 0.  1.
<mgrwt>
<rscale>  0 0.90935977E+02</rscale>
<asrwt>0</asrwt>
<pdfrwt beam="2">  1        1 0.16228127E+00 0.90935977E+02</pdfrwt>
<pdfrwt beam="1">  1       -1 0.30152016E-03 0.90935977E+02</pdfrwt>
<totfact> 0.13484815E+05</totfact>
</mgrwt>
</event>
<event>
 7    1  0.3565607E-009  0.8912727E+02  0.7818608E-02  0.1304979E+00
          1   -1    0    0  501    0  0.00000000000E+00  0.00000000000E+00  0.26599065431E+02  0.26599065908E+02  0.50400000000E-02 0. -1.
         -1   -1    0    0    0  501 -0.00000000000E+00 -0.00000000000E+00 -0.74661170289E+02  0.74661170459E+02  0.50400000000E-02 0.  1.
         23    2    1    2    0    0 -0.88817841970E-15 -0.71054273576E-14 -0.48062104858E+02  0.10126023637E+03  0.89127266006E+02 0.  0.
    9000005    2    3    3    0    0 -0.59684655482E+01 -0.43351386506E+02 -0.29754790330E+02  0.53824774335E+02  0.98383683443E+01 0.  0.
         22    1    3    3    0    0  0.59684655482E+01  0.43351386506E+02 -0.18307314528E+02  0.47435462032E+02  0.00000000000E+00 0.  1.
         22    1    4    4    0    0 -0.14341120375E+01 -0.36939137886E+02 -0.25302613472E+02  0.44797085102E+02  0.00000000000E+00 0. -1.
         22    1    4    4    0    0 -0.45343535107E+01 -0.64122486197E+01 -0.44521768587E+01  0.90276892338E+01  0.00000000000E+00 0. -1.
<mgrwt>
<rscale>  0 0.89127266E+02</rscale>
<asrwt>0</asrwt>
<pdfrwt beam="1">  1        1 0.40921640E-02 0.89127266E+02</pdfrwt>
<pdfrwt beam="2">  1       -1 0.11486334E-01 0.89127266E+02</pdfrwt>
<totfact> 0.90747619E+04</totfact>
</mgrwt>
</event>
<event>
 6    1  0.3565607E-009  0.3235360E+03  0.7818608E-02  0.1074033E+00
          1   -1    0    0  501    0  0.00000000000E+00  0.00000000000E+00  0.18786972428E+03  0.18786972434E+03  0.50400000000E-02 0. -1.
         -1   -1    0    0    0  501 -0.00000000000E+00 -0.00000000000E+00 -0.13929276722E+03  0.13929276731E+03  0.50400000000E-02 0.  1.
    9000005    2    1    2    0    0 -0.78146199223E+02  0.11322851830E+03  0.11023811260E+03  0.17639902157E+03  0.60537205829E+01 0.  0.
         22    1    1    2    0    0  0.78146199223E+02 -0.11322851830E+03 -0.61661155544E+02  0.15076347008E+03  0.00000000000E+00 0.  1.
         22    1    3    3    0    0 -0.75576457054E+02  0.11040308288E+03  0.10600552587E+03  0.17069801723E+03  0.00000000000E+00 0.  1.
         22    1    3    3    0    0 -0.25697421690E+01  0.28254354161E+01  0.42325867246E+01  0.57010043402E+01  0.00000000000E+00 0.  1.
<mgrwt>
<rscale>  0 0.32353605E+03</rscale>
<asrwt>0</asrwt>
<pdfrwt beam="1">  1        1 0.28903034E-01 0.32353605E+03</pdfrwt>
<pdfrwt beam="2">  1       -1 0.21429657E-01 0.32353605E+03</pdfrwt>
<totfact> 0.28618184E+03</totfact>
</mgrwt>
</event>
<event>
 7    1  0.3565607E-009  0.9200050E+02  0.7818608E-02  0.1298078E+00
         -1   -1    0    0    0  501 -0.00000000000E+00  0.00000000000E+00  0.90622333616E+01  0.90622347631E+01  0.50400000000E-02 0.  1.
          1   -1    0    0  501    0  0.00000000000E+00 -0.00000000000E+00 -0.23349902351E+03  0.23349902357E+03  0.50400000000E-02 0. -1.
         23    2    1    2    0    0  0.00000000000E+00  0.00000000000E+00 -0.22443679015E+03  0.24256125833E+03  0.92000496028E+02 0.  0.
    9000005    2    3    3    0    0  0.15656536337E+01 -0.43881195788E+02 -0.14027218418E+03  0.14763132884E+03  0.13809887212E+02 0.  0.
         22    1    3    3    0    0 -0.15656536337E+01  0.43881195788E+02 -0.84164605974E+02  0.94929929495E+02  0.00000000000E+00 0. -1.
         22    1    4    4    0    0 -0.45766506935E+01 -0.32646563778E+02 -0.93644480029E+02  0.99277552840E+02  0.00000000000E+00 0.  1.
         22    1    4    4    0    0  0.61423043272E+01 -0.11234632010E+02 -0.46627704148E+02  0.48353775995E+02  0.00000000000E+00 0.  1.
<mgrwt>
<rscale>  0 0.92000496E+02</rscale>
<asrwt>0</asrwt>
<pdfrwt beam="2">  1        1 0.35922922E-01 0.92000496E+02</pdfrwt>
<pdfrwt beam="1">  1       -1 0.13941900E-02 0.92000496E+02</pdfrwt>
<totfact> 0.11913052E+05</totfact>
</mgrwt>
</event>
<event>
 7    1  0.3565607E-009  0.8920858E+02  0.7818608E-02  0.1304780E+00
         -1   -1    0    0    0  501 -0.00000000000E+00  0.00000000000E+00  0.62522212893E+01  0.62522233207E+01  0.50400000000E-02 0.  1.
          1   -1    0    0  501    0  0.00000000000E+00 -0.00000000000E+00 -0.31821366663E+03  0.31821366667E+03  0.50400000000E-02 0. -1.
         23    2    1    2    0    0  0.00000000000E+00  0.00000000000E+00 -0.31196144534E+03  0.32446588999E+03  0.89208577997E+02 0.  0.
    9000005    2    3    3    0    0 -0.17465956699E+02  0.88465809195E+00 -0.30508753120E+03  0.30567512207E+03  0.72826021601E+01 0.  0.
         22    1    3    3    0    0  0.17465956699E+02 -0.88465809195E+00 -0.68739141345E+01  0.18790767916E+02  0.00000000000E+00 0.  1.
         22    1    4    4    0    0 -0.43945894832E+00 -0.85765557298E+00 -0.45652536605E+01  0.46658587885E+01  0.00000000000E+00 0. -1.
         22    1    4    4    0    0 -0.17026497751E+02  0.17423136649E+01 -0.30052227754E+03  0.30100926328E+03  0.00000000000E+00 0. -1.
<mgrwt>
<rscale>  0 0.89208578E+02</rscale>
<asrwt>0</asrwt>
<pdfrwt beam="2">  1        1 0.48955936E-01 0.89208578E+02</pdfrwt>
<pdfrwt beam="1">  1       -1 0.96188060E-03 0.89208578E+02</pdfrwt>
<totfact> 0.13729385E+05</totfact>
</mgrwt>
</event>
<event>
 7    1  0.3565607E-009  0.9229041E+02  0.7818608E-02  0.1297398E+00
         -1   -1    0    0    0  501 -0.00000000000E+00  0.00000000000E+00  0.24767264235E+02  0.24767264748E+02  0.50400000000E-02 0.  1.
          1   -1    0    0  501    0  0.00000000000E+00 -0.00000000000E+00 -0.85975579597E+02  0.85975579744E+02  0.50400000000E-02 0. -1.
         23    2    1    2    0    0  0.00000000000E+00 -0.35527136788E-14 -0.61208315361E+02  0.11074284449E+03  0.92290409778E+02 0.  0.
    9000005    2    3    3    0    0  0.17618917462E+02  0.25583094227E+02 -0.71347563782E+02  0.78066778002E+02  0.62470798978E+01 0.  0.
         22    1    3    3    0    0 -0.17618917462E+02 -0.25583094227E+02  0.10139248421E+02  0.32676066490E+02  0.00000000000E+00 0.  1.
         22    1    4    4    0    0  0.97085696065E+01  0.17000993196E+02 -0.50699916101E+02  0.54348611630E+02  0.00000000000E+00 0. -1.
         22    1    4    4    0    0  0.79103478557E+01  0.85821010305E+01 -0.20647647681E+02  0.23718166372E+02  0.00000000000E+00 0. -1.
<mgrwt>
<rscale>  0 0.92290410E+02</rscale>
<asrwt>0</asrwt>
<pdfrwt beam="2">  1        1 0.13227012E-01 0.92290410E+02</pdfrwt>
<pdfrwt beam="1">  1       -1 0.38103484E-02 0.92290410E+02</pdfrwt>
<totfact> 0.98567787E+04</totfact>
</mgrwt>
</event>
<event>
 7    1  0.3565607E-009  0.9251420E+02  0.7818608E-02  0.1296875E+00
          1   -1    0    0  501    0  0.00000000000E+00  0.00000000000E+00  0.20770012380E+03  0.20770012386E+03  0.50400000000E-02 0. -1.
         -1   -1    0    0    0  501 -0.00000000000E+00 -0.00000000000E+00 -0.10301963561E+02  0.10301964793E+02  0.50400000000E-02 0.  1.
         23    2    1    2    0    0  0.00000000000E+00  0.00000000000E+00  0.19739816024E+03  0.21800208865E+03  0.92514198866E+02 0.  0.
    9000005    2    3    3    0    0  0.34493923733E+02 -0.83242446045E+00  0.30246040675E+02  0.47325919317E+02  0.11592927055E+02 0.  0.
         22    1    3    3    0    0 -0.34493923733E+02  0.83242446045E+00  0.16715211956E+03  0.17067616933E+03  0.00000000000E+00 0. -1.
         22    1    4    4    0    0  0.14736264268E+02 -0.42048740991E+00  0.20610033711E+02  0.25339845773E+02  0.00000000000E+00 0.  1.
         22    1    4    4    0    0  0.19757659465E+02 -0.41193705053E+00  0.96360069641E+01  0.21986073544E+02  0.00000000000E+00 0.  1.
<mgrwt>
<rscale>  0 0.92514199E+02</rscale>
<asrwt>0</asrwt>
<pdfrwt beam="1">  1        1 0.31953865E-01 0.92514199E+02</pdfrwt>
<pdfrwt beam="2">  1       -1 0.15849176E-02 0.92514199E+02</pdfrwt>
<totfact> 0.11470614E+05</totfact>
</mgrwt>
</event>
<event>
 7    1  0.3565607E-009  0.8615375E+02  0.7818608E-02  0.1312443E+00
         -1   -1    0    0    0  501 -0.00000000000E+00  0.00000000000E+00  0.65594452449E+02  0.65594452643E+02  0.50400000000E-02 0.  1.
          1   -1    0    0  501    0  0.00000000000E+00 -0.00000000000E+00 -0.28289238260E+02  0.28289238709E+02  0.50400000000E-02 0. -1.
         23    2    1    2    0    0  0.00000000000E+00 -0.71054273576E-14  0.37305214189E+02  0.93883691352E+02  0.86153749171E+02 0.  0.
    9000005    2    3    3    0    0  0.18675621138E+02  0.37417143993E+02  0.13920187184E+02  0.45970426201E+02  0.13064722896E+02 0.  0.
         22    1    3    3    0    0 -0.18675621138E+02 -0.37417143993E+02  0.23385027004E+02  0.47913265151E+02  0.00000000000E+00 0.  1.
         22    1    4    4    0    0  0.12057938943E+01  0.99232086314E+01  0.81304561094E+01  0.12885197903E+02  0.00000000000E+00 0.  1.
         22    1    4    4    0    0  0.17469827243E+02  0.27493935361E+02  0.57897310751E+01  0.33085228297E+02  0.00000000000E+00 0.  1.
<mgrwt>
<rscale>  0 0.86153749E+02</rscale>
<asrwt>0</asrwt>
<pdfrwt beam="2">  1        1 0.43521905E-02 0.86153749E+02</pdfrwt>
<pdfrwt beam="1">  1       -1 0.10091454E-01 0.86153749E+02</pdfrwt>
<totfact> 0.10098640E+05</totfact>
</mgrwt>
</event>
<event>
 7    1  0.3565607E-009  0.9101457E+02  0.7818608E-02  0.1300413E+00
         -1   -1    0    0    0  501 -0.00000000000E+00  0.00000000000E+00  0.10224854038E+02  0.10224855280E+02  0.50400000000E-02 0.  1.
          1   -1    0    0  501    0  0.00000000000E+00 -0.00000000000E+00 -0.20253714487E+03  0.20253714493E+03  0.50400000000E-02 0. -1.
         23    2    1    2    0    0  0.35527136788E-14  0.00000000000E+00 -0.19231229083E+03  0.21276200021E+03  0.91014567677E+02 0.  0.
    9000005    2    3    3    0    0 -0.23301950052E+02 -0.30669404112E+02 -0.39721192266E+02  0.55384630218E+02  0.24679798549E+01 0.  0.
         22    1    3    3    0    0  0.23301950052E+02  0.30669404112E+02 -0.15259109856E+03  0.15737736999E+03  0.00000000000E+00 0. -1.
         22    1    4    4    0    0 -0.11386398610E+02 -0.16991115052E+02 -0.20741425256E+02  0.29129963708E+02  0.00000000000E+00 0.  1.
         22    1    4    4    0    0 -0.11915551442E+02 -0.13678289060E+02 -0.18979767010E+02  0.26254666510E+02  0.00000000000E+00 0.  1.
<mgrwt>
<rscale>  0 0.91014568E+02</rscale>
<asrwt>0</asrwt>
<pdfrwt beam="2">  1        1 0.31159558E-01 0.91014568E+02</pdfrwt>
<pdfrwt beam="1">  1       -1 0.15730547E-02 0.91014568E+02</pdfrwt>
<totfact> 0.11926461E+05</totfact>
</mgrwt>
</event>
<event>
 7    1  0.3565607E-009  0.8357808E+02  0.7818608E-02  0.1319193E+00
          1   -1    0    0  501    0  0.00000000000E+00  0.00000000000E+00  0.31257585925E+02  0.31257586331E+02  0.50400000000E-02 0. -1.
         -1   -1    0    0    0  501 -0.00000000000E+00 -0.00000000000E+00 -0.55868806351E+02  0.55868806578E+02  0.50400000000E-02 0.  1.
         23    2    1    2    0    0  0.35527136788E-14  0.00000000000E+00 -0.24611220426E+02  0.87126392909E+02  0.83578084272E+02 0.  0.
    9000005    2    3    3    0    0  0.31663824322E+02  0.20506581245E+02 -0.29112492181E+02  0.49134563624E+02  0.11981256046E+02 0.  0.
         22    1    3    3    0    0 -0.31663824322E+02 -0.20506581245E+02  0.45012717550E+01  0.37991829286E+02  0.00000000000E+00 0. -1.
         22    1    4    4    0    0  0.38463500484E+01  0.83611337798E+01 -0.60536605563E+01  0.11015887296E+02  0.00000000000E+00 0. -1.
         22    1    4    4    0    0  0.27817474274E+02  0.12145447465E+02 -0.23058831625E+02  0.38118676328E+02  0.00000000000E+00 0. -1.
<mgrwt>
<rscale>  0 0.83578084E+02</rscale>
<asrwt>0</asrwt>
<pdfrwt beam="1">  1        1 0.48088594E-02 0.83578084E+02</pdfrwt>
<pdfrwt beam="2">  1       -1 0.85952010E-02 0.83578084E+02</pdfrwt>
<totfact> 0.11170606E+05</totfact>
</mgrwt>
</event>
<event>
 7    1  0.3565607E-009  0.9107104E+02  0.7818608E-02  0.1300279E+00
         -1   -1    0    0    0  501 -0.00000000000E+00  0.00000000000E+00  0.15543526184E+02  0.15543527002E+02  0.50400000000E-02 0.  1.
          1   -1    0    0  501    0  0.00000000000E+00 -0.00000000000E+00 -0.13339853818E+03  0.13339853827E+03  0.50400000000E-02 0. -1.
         23    2    1    2    0    0  0.00000000000E+00  0.22204460493E-15 -0.11785501199E+03  0.14894206527E+03  0.91071043456E+02 0.  0.
    9000005    2    3    3    0    0 -0.17082353780E+02  0.10360519910E+01 -0.12744215660E+03  0.12932590979E+03  0.13813306993E+02 0.  0.
         22    1    3    3    0    0  0.17082353780E+02 -0.10360519910E+01  0.95871446040E+01  0.19616155486E+02  0.00000000000E+00 0.  1.
         22    1    4    4    0    0 -0.15995716244E+02  0.22421981919E+01 -0.12632921100E+03  0.12735760653E+03  0.00000000000E+00 0.  1.
         22    1    4    4    0    0 -0.10866375362E+01 -0.12061462008E+01 -0.11129455999E+01  0.19683032544E+01  0.00000000000E+00 0.  1.
<mgrwt>
<rscale>  0 0.91071043E+02</rscale>
<asrwt>0</asrwt>
<pdfrwt beam="2">  1        1 0.20522851E-01 0.91071043E+02</pdfrwt>
<pdfrwt beam="1">  1       -1 0.23913119E-02 0.91071043E+02</pdfrwt>
<totfact> 0.11011701E+05</totfact>
</mgrwt>
</event>
<event>
 7    1  0.3565607E-009  0.9158838E+02  0.7818608E-02  0.1299050E+00
          1   -1    0    0  501    0  0.00000000000E+00  0.00000000000E+00  0.79352465879E+03  0.79352465880E+03  0.50400000000E-02 0. -1.
         -1   -1    0    0    0  501 -0.00000000000E+00 -0.00000000000E+00 -0.26427732944E+01  0.26427781002E+01  0.50400000000E-02 0.  1.
         23    2    1    2    0    0  0.00000000000E+00  0.00000000000E+00  0.79088188549E+03  0.79616743690E+03  0.91588376908E+02 0.  0.
    9000005    2    3    3    0    0  0.18019003124E+02  0.22764874025E+02  0.70262752989E+03  0.70326019690E+03  0.68216431507E+01 0.  0.
         22    1    3    3    0    0 -0.18019003124E+02 -0.22764874025E+02  0.88254355598E+02  0.92907240003E+02  0.00000000000E+00 0.  1.
         22    1    4    4    0    0  0.63007785614E+01  0.11954236464E+02  0.26819435726E+03  0.26853457290E+03  0.00000000000E+00 0. -1.
         22    1    4    4    0    0  0.11718224562E+02  0.10810637561E+02  0.43443317264E+03  0.43472562400E+03  0.00000000000E+00 0. -1.
<mgrwt>
<rscale>  0 0.91588377E+02</rscale>
<asrwt>0</asrwt>
<pdfrwt beam="1">  1        1 0.12208096E+00 0.91588377E+02</pdfrwt>
<pdfrwt beam="2">  1       -1 0.40658007E-03 0.91588377E+02</pdfrwt>
<totfact> 0.13972185E+05</totfact>
</mgrwt>
</event>
<event>
 7    1  0.3565607E-009  0.9163051E+02  0.7818608E-02  0.1298951E+00
          1   -1    0    0  501    0  0.00000000000E+00  0.00000000000E+00  0.36158508575E+02  0.36158508927E+02  0.50400000000E-02 0. -1.
         -1   -1    0    0    0  501 -0.00000000000E+00 -0.00000000000E+00 -0.58051005234E+02  0.58051005453E+02  0.50400000000E-02 0.  1.
         23    2    1    2    0    0 -0.17763568394E-14  0.00000000000E+00 -0.21892496659E+02  0.94209514380E+02  0.91630514512E+02 0.  0.
    9000005    2    3    3    0    0 -0.94144242317E+01 -0.29006142509E+02 -0.45454894534E+02  0.55671555424E+02  0.10158098215E+02 0.  0.
         22    1    3    3    0    0  0.94144242317E+01  0.29006142509E+02  0.23562397875E+02  0.38537958956E+02  0.00000000000E+00 0. -1.
         22    1    4    4    0    0 -0.94398459236E+01 -0.23550810350E+02 -0.30047626531E+02  0.39326978264E+02  0.00000000000E+00 0. -1.
         22    1    4    4    0    0  0.25421691884E-01 -0.54553321589E+01 -0.15407268003E+02  0.16344577160E+02  0.00000000000E+00 0. -1.
<mgrwt>
<rscale>  0 0.91630515E+02</rscale>
<asrwt>0</asrwt>
<pdfrwt beam="1">  1        1 0.55628475E-02 0.91630515E+02</pdfrwt>
<pdfrwt beam="2">  1       -1 0.89309239E-02 0.91630515E+02</pdfrwt>
<totfact> 0.88021873E+04</totfact>
</mgrwt>
</event>
<event>
 7    1  0.3565607E-009  0.9140968E+02  0.7818608E-02  0.1299473E+00
          1   -1    0    0  501    0  0.00000000000E+00  0.00000000000E+00  0.15661957105E+02  0.15661957916E+02  0.50400000000E-02 0. -1.
         -1   -1    0    0    0  501 -0.00000000000E+00 -0.00000000000E+00 -0.13337620826E+03  0.13337620836E+03  0.50400000000E-02 0.  1.
         23    2    1    2    0    0  0.00000000000E+00  0.00000000000E+00 -0.11771425116E+03  0.14903816628E+03  0.91409682643E+02 0.  0.
    9000005    2    3    3    0    0  0.40229833487E+02 -0.20777123517E+02 -0.67033057420E+02  0.81077061496E+02  0.54709002701E+01 0.  0.
         22    1    3    3    0    0 -0.40229833487E+02  0.20777123517E+02 -0.50681193739E+02  0.67961104780E+02  0.00000000000E+00 0. -1.
         22    1    4    4    0    0  0.88183681200E+01 -0.49172544498E+01 -0.11187654540E+02  0.15070057124E+02  0.00000000000E+00 0.  1.
         22    1    4    4    0    0  0.31411465367E+02 -0.15859869068E+02 -0.55845402880E+02  0.66007004372E+02  0.00000000000E+00 0.  1.
<mgrwt>
<rscale>  0 0.91409683E+02</rscale>
<asrwt>0</asrwt>
<pdfrwt beam="1">  1        1 0.24095320E-02 0.91409683E+02</pdfrwt>
<pdfrwt beam="2">  1       -1 0.20519416E-01 0.91409683E+02</pdfrwt>
<totfact> 0.76291900E+04</totfact>
</mgrwt>
</event>
<event>
 7    1  0.3565607E-009  0.9285772E+02  0.7818608E-02  0.1296075E+00
          1   -1    0    0  501    0  0.00000000000E+00  0.00000000000E+00  0.16851849593E+02  0.16851850347E+02  0.50400000000E-02 0. -1.
         -1   -1    0    0    0  501 -0.00000000000E+00 -0.00000000000E+00 -0.12791705033E+03  0.12791705043E+03  0.50400000000E-02 0.  1.
         23    2    1    2    0    0  0.00000000000E+00  0.00000000000E+00 -0.11106520073E+03  0.14476890077E+03  0.92857718134E+02 0.  0.
    9000005    2    3    3    0    0  0.99835523836E+01  0.42439014356E+02 -0.79416080940E+02  0.90894899238E+02  0.73639349435E+01 0.  0.
         22    1    3    3    0    0 -0.99835523836E+01 -0.42439014356E+02 -0.31649119792E+02  0.53874001534E+02  0.00000000000E+00 0. -1.
         22    1    4    4    0    0  0.73666596903E+01  0.32760736980E+02 -0.66937326174E+02  0.74887510293E+02  0.00000000000E+00 0. -1.
         22    1    4    4    0    0  0.26168926933E+01  0.96782773761E+01 -0.12478754766E+02  0.16007388945E+02  0.00000000000E+00 0. -1.
<mgrwt>
<rscale>  0 0.92857718E+02</rscale>
<asrwt>0</asrwt>
<pdfrwt beam="1">  1        1 0.25925924E-02 0.92857718E+02</pdfrwt>
<pdfrwt beam="2">  1       -1 0.19679546E-01 0.92857718E+02</pdfrwt>
<totfact> 0.73908118E+04</totfact>
</mgrwt>
</event>
<event>
 7    1  0.3565607E-009  0.9084517E+02  0.7818608E-02  0.1300818E+00
         -1   -1    0    0    0  501 -0.00000000000E+00  0.00000000000E+00  0.33942427220E+03  0.33942427224E+03  0.50400000000E-02 0.  1.
          1   -1    0    0  501    0  0.00000000000E+00 -0.00000000000E+00 -0.60785599454E+01  0.60785620348E+01  0.50400000000E-02 0. -1.
         23    2    1    2    0    0  0.00000000000E+00 -0.35527136788E-14  0.33334571226E+03  0.34550283427E+03  0.90845168345E+02 0.  0.
    9000005    2    3    3    0    0  0.25926541049E+02  0.17989983489E+02  0.29069093366E+03  0.29244385601E+03  0.51346832823E+01 0.  0.
         22    1    3    3    0    0 -0.25926541049E+02 -0.17989983489E+02  0.42654778597E+02  0.53058978259E+02  0.00000000000E+00 0. -1.
         22    1    4    4    0    0  0.15042337381E+02  0.11602680858E+02  0.15273661542E+03  0.15391350755E+03  0.00000000000E+00 0.  1.
         22    1    4    4    0    0  0.10884203668E+02  0.63873026315E+01  0.13795431824E+03  0.13853034847E+03  0.00000000000E+00 0.  1.
<mgrwt>
<rscale>  0 0.90845168E+02</rscale>
<asrwt>0</asrwt>
<pdfrwt beam="2">  1        1 0.93516304E-03 0.90845168E+02</pdfrwt>
<pdfrwt beam="1">  1       -1 0.52219130E-01 0.90845168E+02</pdfrwt>
<totfact> 0.58114494E+04</totfact>
</mgrwt>
</event>
<event>
 7    1  0.3565607E-009  0.8963194E+02  0.7818608E-02  0.1303745E+00
          1   -1    0    0  501    0  0.00000000000E+00  0.00000000000E+00  0.24945266434E+02  0.24945266943E+02  0.50400000000E-02 0. -1.
         -1   -1    0    0    0  501 -0.00000000000E+00 -0.00000000000E+00 -0.80515116051E+02  0.80515116208E+02  0.50400000000E-02 0.  1.
         23    2    1    2    0    0  0.00000000000E+00  0.35527136788E-14 -0.55569849617E+02  0.10546038315E+03  0.89631937544E+02 0.  0.
    9000005    2    3    3    0    0 -0.33757968230E+02 -0.27324876037E+02 -0.22330185670E+02  0.50769209012E+02  0.13878981309E+02 0.  0.
         22    1    3    3    0    0  0.33757968230E+02  0.27324876037E+02 -0.33239663947E+02  0.54691174139E+02  0.00000000000E+00 0.  1.
         22    1    4    4    0    0 -0.33291871162E+02 -0.26638686010E+02 -0.23983038769E+02  0.48919877620E+02  0.00000000000E+00 0.  1.
         22    1    4    4    0    0 -0.46609706855E+00 -0.68619002694E+00  0.16528530988E+01  0.18493313918E+01  0.00000000000E+00 0.  1.
<mgrwt>
<rscale>  0 0.89631938E+02</rscale>
<asrwt>0</asrwt>
<pdfrwt beam="1">  1        1 0.38377334E-02 0.89631938E+02</pdfrwt>
<pdfrwt beam="2">  1       -1 0.12386941E-01 0.89631938E+02</pdfrwt>
<totfact> 0.88336499E+04</totfact>
</mgrwt>
</event>
<event>
 7    1  0.3565607E-009  0.8872481E+02  0.7818608E-02  0.1305969E+00
         -1   -1    0    0    0  501 -0.00000000000E+00  0.00000000000E+00  0.43592664421E+02  0.43592664712E+02  0.50400000000E-02 0.  1.
          1   -1    0    0  501    0  0.00000000000E+00 -0.00000000000E+00 -0.45145741155E+02  0.45145741437E+02  0.50400000000E-02 0. -1.
         23    2    1    2    0    0  0.00000000000E+00  0.00000000000E+00 -0.15530767347E+01  0.88738406149E+02  0.88724814333E+02 0.  0.
    9000005    2    3    3    0    0 -0.32966386102E+02 -0.24283902030E+02  0.13111715655E+02  0.45246491426E+02  0.14100971192E+02 0.  0.
         22    1    3    3    0    0  0.32966386102E+02  0.24283902030E+02 -0.14664792389E+02  0.43491914723E+02  0.00000000000E+00 0. -1.
         22    1    4    4    0    0 -0.19658398800E+02 -0.70687918902E+01  0.10345999571E+02  0.23312232182E+02  0.00000000000E+00 0.  1.
         22    1    4    4    0    0 -0.13307987302E+02 -0.17215110140E+02  0.27657160837E+01  0.21934259244E+02  0.00000000000E+00 0.  1.
<mgrwt>
<rscale>  0 0.88724814E+02</rscale>
<asrwt>0</asrwt>
<pdfrwt beam="2">  1        1 0.69454986E-02 0.88724814E+02</pdfrwt>
<pdfrwt beam="1">  1       -1 0.67065638E-02 0.88724814E+02</pdfrwt>
<totfact> 0.99659604E+04</totfact>
</mgrwt>
</event>
<event>
 7    1  0.3565607E-009  0.9085331E+02  0.7818608E-02  0.1300798E+00
         -1   -1    0    0    0  501 -0.00000000000E+00  0.00000000000E+00  0.12672798078E+03  0.12672798088E+03  0.50400000000E-02 0.  1.
          1   -1    0    0  501    0  0.00000000000E+00 -0.00000000000E+00 -0.16283546285E+02  0.16283547065E+02  0.50400000000E-02 0. -1.
         23    2    1    2    0    0  0.00000000000E+00  0.00000000000E+00  0.11044443450E+03  0.14301152795E+03  0.90853310420E+02 0.  0.
    9000005    2    3    3    0    0  0.43528948816E+01 -0.42167758035E+02  0.78086229846E+02  0.89681227743E+02  0.12173569996E+02 0.  0.
         22    1    3    3    0    0 -0.43528948816E+01  0.42167758035E+02  0.32358204651E+02  0.53330300203E+02  0.00000000000E+00 0. -1.
         22    1    4    4    0    0 -0.20136017898E+01 -0.10941522811E+02  0.29970002606E+02  0.31968305707E+02  0.00000000000E+00 0.  1.
         22    1    4    4    0    0  0.63664966715E+01 -0.31226235224E+02  0.48116227240E+02  0.57712922036E+02  0.00000000000E+00 0.  1.
<mgrwt>
<rscale>  0 0.90853310E+02</rscale>
<asrwt>0</asrwt>
<pdfrwt beam="2">  1        1 0.25051610E-02 0.90853310E+02</pdfrwt>
<pdfrwt beam="1">  1       -1 0.19496613E-01 0.90853310E+02</pdfrwt>
<totfact> 0.78362410E+04</totfact>
</mgrwt>
</event>
<event>
 7    1  0.3565607E-009  0.9158955E+02  0.7818608E-02  0.1299047E+00
         -1   -1    0    0    0  501 -0.00000000000E+00  0.00000000000E+00  0.51148032695E+01  0.51148057526E+01  0.50400000000E-02 0. -1.
          1   -1    0    0  501    0  0.00000000000E+00 -0.00000000000E+00 -0.41001792432E+03  0.41001792435E+03  0.50400000000E-02 0.  1.
         23    2    1    2    0    0  0.00000000000E+00  0.00000000000E+00 -0.40490312105E+03  0.41513273011E+03  0.91589552717E+02 0.  0.
    9000005    2    3    3    0    0 -0.22372816337E+02  0.35992999846E+02 -0.27091446599E+03  0.27460159962E+03  0.14674865759E+02 0.  0.
         22    1    3    3    0    0  0.22372816337E+02 -0.35992999846E+02 -0.13398865507E+03  0.14053113049E+03  0.00000000000E+00 0. -1.
         22    1    4    4    0    0 -0.10105090735E+02  0.24086917161E+02 -0.12576904422E+03  0.12845288989E+03  0.00000000000E+00 0.  1.
         22    1    4    4    0    0 -0.12267725602E+02  0.11906082686E+02 -0.14514542177E+03  0.14614870973E+03  0.00000000000E+00 0.  1.
<mgrwt>
<rscale>  0 0.91589553E+02</rscale>
<asrwt>0</asrwt>
<pdfrwt beam="2">  1        1 0.63079655E-01 0.91589553E+02</pdfrwt>
<pdfrwt beam="1">  1       -1 0.78689333E-03 0.91589553E+02</pdfrwt>
<totfact> 0.13381741E+05</totfact>
</mgrwt>
</event>
<event>
 7    1  0.3565607E-009  0.9221217E+02  0.7818608E-02  0.1297581E+00
          1   -1    0    0  501    0  0.00000000000E+00  0.00000000000E+00  0.12569288430E+02  0.12569289441E+02  0.50400000000E-02 0. -1.
         -1   -1    0    0    0  501 -0.00000000000E+00 -0.00000000000E+00 -0.16912419761E+03  0.16912419769E+03  0.50400000000E-02 0.  1.
         23    2    1    2    0    0 -0.35527136788E-14 -0.35527136788E-14 -0.15655490918E+03  0.18169348713E+03  0.92212166637E+02 0.  0.
    9000005    2    3    3    0    0  0.27457352088E+02  0.23065766356E+02 -0.26611817112E+02  0.46893105311E+02  0.14312189018E+02 0.  0.
         22    1    3    3    0    0 -0.27457352088E+02 -0.23065766356E+02 -0.12994309207E+03  0.13480038182E+03  0.00000000000E+00 0.  1.
         22    1    4    4    0    0  0.22807094303E+02  0.16962375722E+02 -0.12972830142E+02  0.31243880402E+02  0.00000000000E+00 0. -1.
         22    1    4    4    0    0  0.46502577848E+01  0.61033906335E+01 -0.13638986970E+02  0.15649224909E+02  0.00000000000E+00 0. -1.
<mgrwt>
<rscale>  0 0.92212167E+02</rscale>
<asrwt>0</asrwt>
<pdfrwt beam="1">  1        1 0.19337369E-02 0.92212167E+02</pdfrwt>
<pdfrwt beam="2">  1       -1 0.26019106E-01 0.92212167E+02</pdfrwt>
<totfact> 0.70529969E+04</totfact>
</mgrwt>
</event>
<event>
 7    1  0.3565607E-009  0.9279343E+02  0.7818608E-02  0.1296225E+00
          1   -1    0    0  501    0  0.00000000000E+00  0.00000000000E+00  0.89470274033E+02  0.89470274175E+02  0.50400000000E-02 0. -1.
         -1   -1    0    0    0  501 -0.00000000000E+00 -0.00000000000E+00 -0.24060004799E+02  0.24060005327E+02  0.50400000000E-02 0.  1.
         23    2    1    2    0    0 -0.17763568394E-14  0.00000000000E+00  0.65410269235E+02  0.11353027950E+03  0.92793432108E+02 0.  0.
    9000005    2    3    3    0    0  0.15445595246E+02 -0.33948155302E+02 -0.70989138600E+00  0.37616385507E+02  0.48419884290E+01 0.  0.
         22    1    3    3    0    0 -0.15445595246E+02  0.33948155302E+02  0.66120160621E+02  0.75913893995E+02  0.00000000000E+00 0. -1.
         22    1    4    4    0    0  0.83149544751E+01 -0.23343201983E+02  0.45501632476E+00  0.24784079297E+02  0.00000000000E+00 0. -1.
         22    1    4    4    0    0  0.71306407713E+01 -0.10604953319E+02 -0.11649077108E+01  0.12832306211E+02  0.00000000000E+00 0. -1.
<mgrwt>
<rscale>  0 0.92793432E+02</rscale>
<asrwt>0</asrwt>
<pdfrwt beam="1">  1        1 0.13764658E-01 0.92793432E+02</pdfrwt>
<pdfrwt beam="2">  1       -1 0.37015393E-02 0.92793432E+02</pdfrwt>
<totfact> 0.97738951E+04</totfact>
</mgrwt>
</event>
<event>
 7    1  0.3565607E-009  0.8592882E+02  0.7818608E-02  0.1313021E+00
         -1   -1    0    0    0  501 -0.00000000000E+00  0.00000000000E+00  0.63998267660E+02  0.63998267858E+02  0.50400000000E-02 0.  1.
          1   -1    0    0  501    0  0.00000000000E+00 -0.00000000000E+00 -0.28843602761E+02  0.28843603201E+02  0.50400000000E-02 0. -1.
         23    2    1    2    0    0  0.00000000000E+00 -0.17763568394E-14  0.35154664899E+02  0.92841871060E+02  0.85928822625E+02 0.  0.
    9000005    2    3    3    0    0 -0.40209722283E+02 -0.97738405056E+01  0.13482626896E+02  0.46129699674E+02  0.15291116366E+02 0.  0.
         22    1    3    3    0    0  0.40209722283E+02  0.97738405056E+01  0.21672038003E+02  0.46712171385E+02  0.00000000000E+00 0. -1.
         22    1    4    4    0    0 -0.16599042648E+02 -0.44547003633E+01 -0.21458665737E+01  0.17319853218E+02  0.00000000000E+00 0. -1.
         22    1    4    4    0    0 -0.23610679635E+02 -0.53191401423E+01  0.15628493470E+02  0.28809846456E+02  0.00000000000E+00 0. -1.
<mgrwt>
<rscale>  0 0.85928823E+02</rscale>
<asrwt>0</asrwt>
<pdfrwt beam="2">  1        1 0.44374774E-02 0.85928823E+02</pdfrwt>
<pdfrwt beam="1">  1       -1 0.98458874E-02 0.85928823E+02</pdfrwt>
<totfact> 0.10204390E+05</totfact>
</mgrwt>
</event>
<event>
 7    1  0.3565607E-009  0.9048344E+02  0.7818608E-02  0.1301685E+00
         -1   -1    0    0    0  501 -0.00000000000E+00  0.00000000000E+00  0.16688886317E+03  0.16688886325E+03  0.50400000000E-02 0.  1.
          1   -1    0    0  501    0  0.00000000000E+00 -0.00000000000E+00 -0.12264526683E+02  0.12264527718E+02  0.50400000000E-02 0. -1.
         23    2    1    2    0    0  0.17763568394E-14  0.17763568394E-14  0.15462433649E+03  0.17915339096E+03  0.90483435279E+02 0.  0.
    9000005    2    3    3    0    0 -0.12069299147E+02 -0.96071568882E+01  0.16147155894E+03  0.16227589409E+03  0.47366664335E+01 0.  0.
         22    1    3    3    0    0  0.12069299147E+02  0.96071568882E+01 -0.68472224581E+01  0.16877496875E+02  0.00000000000E+00 0. -1.
         22    1    4    4    0    0 -0.36496678525E+01 -0.34837843932E+01  0.33034639672E+02  0.33417723552E+02  0.00000000000E+00 0.  1.
         22    1    4    4    0    0 -0.84196312946E+01 -0.61233724950E+01  0.12843691927E+03  0.12885817054E+03  0.00000000000E+00 0.  1.
<mgrwt>
<rscale>  0 0.90483435E+02</rscale>
<asrwt>0</asrwt>
<pdfrwt beam="2">  1        1 0.18868503E-02 0.90483435E+02</pdfrwt>
<pdfrwt beam="1">  1       -1 0.25675210E-01 0.90483435E+02</pdfrwt>
<totfact> 0.74337495E+04</totfact>
</mgrwt>
</event>
<event>
 7    1  0.3565607E-009  0.9058161E+02  0.7818608E-02  0.1301449E+00
         -1   -1    0    0    0  501 -0.00000000000E+00  0.00000000000E+00  0.31164097747E+03  0.31164097751E+03  0.50400000000E-02 0.  1.
          1   -1    0    0  501    0  0.00000000000E+00 -0.00000000000E+00 -0.65821150789E+01  0.65821170085E+01  0.50400000000E-02 0. -1.
         23    2    1    2    0    0  0.00000000000E+00  0.00000000000E+00  0.30505886239E+03  0.31822309452E+03  0.90581611611E+02 0.  0.
    9000005    2    3    3    0    0  0.24751787576E+02  0.22340391991E+02  0.25951728546E+03  0.26178038611E+03  0.82465144156E+01 0.  0.
         22    1    3    3    0    0 -0.24751787576E+02 -0.22340391991E+02  0.45541576933E+02  0.56442708405E+02  0.00000000000E+00 0. -1.
         22    1    4    4    0    0  0.25278360214E+02  0.21837543580E+02  0.24793171371E+03  0.25017195780E+03  0.00000000000E+00 0. -1.
         22    1    4    4    0    0 -0.52657263818E+00  0.50284841103E+00  0.11585571746E+02  0.11608428316E+02  0.00000000000E+00 0. -1.
<mgrwt>
<rscale>  0 0.90581612E+02</rscale>
<asrwt>0</asrwt>
<pdfrwt beam="2">  1        1 0.10126330E-02 0.90581612E+02</pdfrwt>
<pdfrwt beam="1">  1       -1 0.47944775E-01 0.90581612E+02</pdfrwt>
<totfact> 0.60701472E+04</totfact>
</mgrwt>
</event>
<event>
 7    1  0.3565607E-009  0.9070383E+02  0.7818608E-02  0.1301156E+00
         -1   -1    0    0    0  501 -0.00000000000E+00  0.00000000000E+00  0.49021044508E+02  0.49021044767E+02  0.50400000000E-02 0.  1.
          1   -1    0    0  501    0  0.00000000000E+00 -0.00000000000E+00 -0.41957408281E+02  0.41957408584E+02  0.50400000000E-02 0. -1.
         23    2    1    2    0    0  0.00000000000E+00  0.00000000000E+00  0.70636362272E+01  0.90978453351E+02  0.90703825814E+02 0.  0.
    9000005    2    3    3    0    0  0.20763652022E+02  0.33236130371E+02 -0.18432305375E+02  0.44225778074E+02  0.89666023349E+01 0.  0.
         22    1    3    3    0    0 -0.20763652022E+02 -0.33236130371E+02  0.25495941603E+02  0.46752675277E+02  0.00000000000E+00 0.  1.
         22    1    4    4    0    0  0.68610436999E+01  0.10332219059E+02 -0.14101835388E+01  0.12482679558E+02  0.00000000000E+00 0.  1.
         22    1    4    4    0    0  0.13902608322E+02  0.22903911312E+02 -0.17022121837E+02  0.31743098516E+02  0.00000000000E+00 0.  1.
<mgrwt>
<rscale>  0 0.90703826E+02</rscale>
<asrwt>0</asrwt>
<pdfrwt beam="2">  1        1 0.64549859E-02 0.90703826E+02</pdfrwt>
<pdfrwt beam="1">  1       -1 0.75416992E-02 0.90703826E+02</pdfrwt>
<totfact> 0.92669915E+04</totfact>
</mgrwt>
</event>
<event>
 7    1  0.3565607E-009  0.9108282E+02  0.7818608E-02  0.1300250E+00
         -1   -1    0    0    0  501 -0.00000000000E+00  0.00000000000E+00  0.24989987138E+02  0.24989987646E+02  0.50400000000E-02 0.  1.
          1   -1    0    0  501    0  0.00000000000E+00 -0.00000000000E+00 -0.82994048575E+02  0.82994048728E+02  0.50400000000E-02 0. -1.
         23    2    1    2    0    0  0.00000000000E+00 -0.88817841970E-15 -0.58004061437E+02  0.10798403637E+03  0.91082824772E+02 0.  0.
    9000005    2    3    3    0    0 -0.19031252651E+02 -0.62941184058E+01  0.16739815150E+02  0.30598950012E+02  0.15945840418E+02 0.  0.
         22    1    3    3    0    0  0.19031252651E+02  0.62941184058E+01 -0.74743876587E+02  0.77385086362E+02  0.00000000000E+00 0. -1.
         22    1    4    4    0    0  0.25404623807E+01 -0.29346605089E+00  0.42504502499E+01  0.49604837222E+01  0.00000000000E+00 0.  1.
         22    1    4    4    0    0 -0.21571715032E+02 -0.60006523549E+01  0.12489364900E+02  0.25638466290E+02  0.00000000000E+00 0.  1.
<mgrwt>
<rscale>  0 0.91082825E+02</rscale>
<asrwt>0</asrwt>
<pdfrwt beam="2">  1        1 0.12768315E-01 0.91082825E+02</pdfrwt>
<pdfrwt beam="1">  1       -1 0.38446135E-02 0.91082825E+02</pdfrwt>
<totfact> 0.10161961E+05</totfact>
</mgrwt>
</event>
<event>
 7    1  0.3565607E-009  0.9640859E+02  0.7818608E-02  0.1288035E+00
         -1   -1    0    0    0  501 -0.00000000000E+00  0.00000000000E+00  0.43341997802E+01  0.43342027106E+01  0.50400000000E-02 0.  1.
          1   -1    0    0  501    0  0.00000000000E+00 -0.00000000000E+00 -0.53612051447E+03  0.53612051449E+03  0.50400000000E-02 0. -1.
         23    2    1    2    0    0  0.00000000000E+00  0.00000000000E+00 -0.53178631469E+03  0.54045471721E+03  0.96408593274E+02 0.  0.
    9000005    2    3    3    0    0  0.28277880889E+02 -0.36495572957E+02 -0.34137250158E+03  0.34452364357E+03  0.54580903189E+01 0.  0.
         22    1    3    3    0    0 -0.28277880889E+02  0.36495572957E+02 -0.19041381311E+03  0.19593107364E+03  0.00000000000E+00 0.  1.
         22    1    4    4    0    0  0.80483981308E+01 -0.74778462080E+01 -0.70397019381E+02  0.71249106900E+02  0.00000000000E+00 0.  1.
         22    1    4    4    0    0  0.20229482758E+02 -0.29017726749E+02 -0.27097548220E+03  0.27327453667E+03  0.00000000000E+00 0.  1.
<mgrwt>
<rscale>  0 0.96408593E+02</rscale>
<asrwt>0</asrwt>
<pdfrwt beam="2">  1        1 0.82480027E-01 0.96408593E+02</pdfrwt>
<pdfrwt beam="1">  1       -1 0.66680062E-03 0.96408593E+02</pdfrwt>
<totfact> 0.12099137E+05</totfact>
</mgrwt>
</event>
<event>
 7    1  0.3565607E-009  0.9116901E+02  0.7818608E-02  0.1300045E+00
          1   -1    0    0  501    0  0.00000000000E+00  0.00000000000E+00  0.10969580865E+04  0.10969580865E+04  0.50400000000E-02 0. -1.
         -1   -1    0    0    0  501 -0.00000000000E+00 -0.00000000000E+00 -0.18942777948E+01  0.18942844996E+01  0.50400000000E-02 0.  1.
         23    2    1    2    0    0 -0.35527136788E-14  0.17763568394E-14  0.10950638087E+04  0.10988523710E+04  0.91169008665E+02 0.  0.
    9000005    2    3    3    0    0 -0.18894065505E+02  0.15704480075E+02  0.10084149896E+04  0.10087877595E+04  0.12179323983E+02 0.  0.
         22    1    3    3    0    0  0.18894065505E+02 -0.15704480075E+02  0.86648819093E+02  0.90064611563E+02  0.00000000000E+00 0.  1.
         22    1    4    4    0    0 -0.16138350784E+02  0.84456146529E+01  0.83551630262E+03  0.83571482380E+03  0.00000000000E+00 0. -1.
         22    1    4    4    0    0 -0.27557147214E+01  0.72588654217E+01  0.17289868701E+03  0.17307293566E+03  0.00000000000E+00 0. -1.
<mgrwt>
<rscale>  0 0.91169009E+02</rscale>
<asrwt>0</asrwt>
<pdfrwt beam="1">  1        1 0.16876259E+00 0.91169009E+02</pdfrwt>
<pdfrwt beam="2">  1       -1 0.29142821E-03 0.91169009E+02</pdfrwt>
<totfact> 0.13216382E+05</totfact>
</mgrwt>
</event>
<event>
 7    1  0.3565607E-009  0.9326306E+02  0.7818608E-02  0.1295137E+00
          1   -1    0    0  501    0  0.00000000000E+00  0.00000000000E+00  0.71536118976E+03  0.71536118978E+03  0.50400000000E-02 0. -1.
         -1   -1    0    0    0  501 -0.00000000000E+00 -0.00000000000E+00 -0.30397207637E+01  0.30397249420E+01  0.50400000000E-02 0.  1.
         23    2    1    2    0    0  0.00000000000E+00  0.00000000000E+00  0.71232146900E+03  0.71840091472E+03  0.93263063842E+02 0.  0.
    9000005    2    3    3    0    0  0.35281724572E+02 -0.24045968769E+02  0.49732844411E+03  0.49920919623E+03  0.71576239899E+01 0.  0.
         22    1    3    3    0    0 -0.35281724572E+02  0.24045968769E+02  0.21499302489E+03  0.21919171849E+03  0.00000000000E+00 0.  1.
         22    1    4    4    0    0  0.12944777823E+02 -0.94150833462E+01  0.14847278969E+03  0.14933311872E+03  0.00000000000E+00 0. -1.
         22    1    4    4    0    0  0.22336946749E+02 -0.14630885423E+02  0.34885565442E+03  0.34987607752E+03  0.00000000000E+00 0. -1.
<mgrwt>
<rscale>  0 0.93263064E+02</rscale>
<asrwt>0</asrwt>
<pdfrwt beam="1">  1        1 0.11005555E+00 0.93263064E+02</pdfrwt>
<pdfrwt beam="2">  1       -1 0.46764976E-03 0.93263064E+02</pdfrwt>
<totfact> 0.13386554E+05</totfact>
</mgrwt>
</event>
<event>
 7    1  0.3565607E-009  0.8869074E+02  0.7818608E-02  0.1306054E+00
         -1   -1    0    0    0  501 -0.00000000000E+00  0.00000000000E+00  0.22005263641E+01  0.22005321358E+01  0.50400000000E-02 0.  1.
          1   -1    0    0  501    0  0.00000000000E+00 -0.00000000000E+00 -0.89365396420E+03  0.89365396421E+03  0.50400000000E-02 0. -1.
         23    2    1    2    0    0 -0.17763568394E-14  0.71054273576E-14 -0.89145343784E+03  0.89585449635E+03  0.88690736839E+02 0.  0.
    9000005    2    3    3    0    0 -0.83417055434E+01  0.31851769780E+02 -0.74397811177E+03  0.74474827183E+03  0.79017919594E+01 0.  0.
         22    1    3    3    0    0  0.83417055434E+01 -0.31851769780E+02 -0.14747532607E+03  0.15110622452E+03  0.00000000000E+00 0.  1.
         22    1    4    4    0    0 -0.63998975900E+01  0.14134595497E+02 -0.28207437230E+03  0.28250079112E+03  0.00000000000E+00 0.  1.
         22    1    4    4    0    0 -0.19418079534E+01  0.17717174283E+02 -0.46190373947E+03  0.46224748071E+03  0.00000000000E+00 0.  1.
<mgrwt>
<rscale>  0 0.88690737E+02</rscale>
<asrwt>0</asrwt>
<pdfrwt beam="2">  1        1 0.13748494E+00 0.88690737E+02</pdfrwt>
<pdfrwt beam="1">  1       -1 0.33854368E-03 0.88690737E+02</pdfrwt>
<totfact> 0.14989425E+05</totfact>
</mgrwt>
</event>
<event>
 7    1  0.3565607E-009  0.9019865E+02  0.7818608E-02  0.1302371E+00
          1   -1    0    0  501    0  0.00000000000E+00  0.00000000000E+00  0.22235989473E+03  0.22235989479E+03  0.50400000000E-02 0. -1.
         -1   -1    0    0    0  501 -0.00000000000E+00 -0.00000000000E+00 -0.91471032539E+01  0.91471046424E+01  0.50400000000E-02 0.  1.
         23    2    1    2    0    0  0.00000000000E+00  0.00000000000E+00  0.21321279148E+03  0.23150699943E+03  0.90198649303E+02 0.  0.
    9000005    2    3    3    0    0 -0.27047145177E+02  0.34138915499E+02  0.12230581433E+03  0.13070475686E+03  0.15099921616E+02 0.  0.
         22    1    3    3    0    0  0.27047145177E+02 -0.34138915499E+02  0.90906977148E+02  0.10080224257E+03  0.00000000000E+00 0.  1.
         22    1    4    4    0    0 -0.38619280177E+01  0.16182319139E+02  0.39555126767E+02  0.42911420325E+02  0.00000000000E+00 0. -1.
         22    1    4    4    0    0 -0.23185217159E+02  0.17956596359E+02  0.82750687566E+02  0.87793336536E+02  0.00000000000E+00 0. -1.
<mgrwt>
<rscale>  0 0.90198649E+02</rscale>
<asrwt>0</asrwt>
<pdfrwt beam="1">  1        1 0.34209216E-01 0.90198649E+02</pdfrwt>
<pdfrwt beam="2">  1       -1 0.14072467E-02 0.90198649E+02</pdfrwt>
<totfact> 0.12441180E+05</totfact>
</mgrwt>
</event>
<event>
 7    1  0.3565607E-009  0.9093858E+02  0.7818608E-02  0.1300595E+00
          1   -1    0    0  501    0  0.00000000000E+00  0.00000000000E+00  0.17588444427E+03  0.17588444434E+03  0.50400000000E-02 0. -1.
         -1   -1    0    0    0  501 -0.00000000000E+00 -0.00000000000E+00 -0.11754628433E+02  0.11754629514E+02  0.50400000000E-02 0.  1.
         23    2    1    2    0    0 -0.17763568394E-14  0.00000000000E+00  0.16412981583E+03  0.18763907385E+03  0.90938581422E+02 0.  0.
    9000005    2    3    3    0    0  0.84409736305E+01 -0.40030746653E+02  0.12192165357E+03  0.12885778708E+03  0.81073403550E+01 0.  0.
         22    1    3    3    0    0 -0.84409736305E+01  0.40030746653E+02  0.42208162263E+02  0.58781286776E+02  0.00000000000E+00 0.  1.
         22    1    4    4    0    0  0.47154210465E-01 -0.17780680454E+02  0.57536169588E+02  0.60220973354E+02  0.00000000000E+00 0.  1.
         22    1    4    4    0    0  0.83938194200E+01 -0.22250066199E+02  0.64385483985E+02  0.68636813725E+02  0.00000000000E+00 0.  1.
<mgrwt>
<rscale>  0 0.90938581E+02</rscale>
<asrwt>0</asrwt>
<pdfrwt beam="1">  1        1 0.27059146E-01 0.90938581E+02</pdfrwt>
<pdfrwt beam="2">  1       -1 0.18084044E-02 0.90938581E+02</pdfrwt>
<totfact> 0.11633103E+05</totfact>
</mgrwt>
</event>
<event>
 7    1  0.3565607E-009  0.8841547E+02  0.7818608E-02  0.1306735E+00
         -1   -1    0    0    0  501 -0.00000000000E+00  0.00000000000E+00  0.56641329775E+02  0.56641329999E+02  0.50400000000E-02 0.  1.
          1   -1    0    0  501    0  0.00000000000E+00 -0.00000000000E+00 -0.34503494682E+02  0.34503495050E+02  0.50400000000E-02 0. -1.
         23    2    1    2    0    0  0.00000000000E+00  0.35527136788E-14  0.22137835092E+02  0.91144825049E+02  0.88415470313E+02 0.  0.
    9000005    2    3    3    0    0 -0.25143827850E+02  0.23514279034E+02 -0.16147056134E+02  0.39658260844E+02  0.11265737168E+02 0.  0.
         22    1    3    3    0    0  0.25143827850E+02 -0.23514279034E+02  0.38284891227E+02  0.51486564205E+02  0.00000000000E+00 0.  1.
         22    1    4    4    0    0 -0.11521132975E+02  0.13928795931E+02 -0.27543259988E+01  0.18284807158E+02  0.00000000000E+00 0. -1.
         22    1    4    4    0    0 -0.13622694875E+02  0.95854831032E+01 -0.13392730135E+02  0.21373453686E+02  0.00000000000E+00 0. -1.
<mgrwt>
<rscale>  0 0.88415470E+02</rscale>
<asrwt>0</asrwt>
<pdfrwt beam="2">  1        1 0.53082300E-02 0.88415470E+02</pdfrwt>
<pdfrwt beam="1">  1       -1 0.87140507E-02 0.88415470E+02</pdfrwt>
<totfact> 0.96706620E+04</totfact>
</mgrwt>
</event>
<event>
 7    1  0.3565607E-009  0.9380498E+02  0.7818608E-02  0.1293890E+00
         -1   -1    0    0    0  501 -0.00000000000E+00  0.00000000000E+00  0.21675039286E+03  0.21675039292E+03  0.50400000000E-02 0.  1.
          1   -1    0    0  501    0  0.00000000000E+00 -0.00000000000E+00 -0.10149201327E+02  0.10149202578E+02  0.50400000000E-02 0. -1.
         23    2    1    2    0    0  0.00000000000E+00  0.00000000000E+00  0.20660119154E+03  0.22689959550E+03  0.93804979046E+02 0.  0.
    9000005    2    3    3    0    0  0.25364659810E+02  0.18296614375E+02  0.21471375713E+02  0.39146617437E+02  0.96594832620E+01 0.  0.
         22    1    3    3    0    0 -0.25364659810E+02 -0.18296614375E+02  0.18512981582E+03  0.18775297806E+03  0.00000000000E+00 0.  1.
         22    1    4    4    0    0  0.11877288721E+02  0.12298436112E+02  0.15963948861E+02  0.23391647684E+02  0.00000000000E+00 0. -1.
         22    1    4    4    0    0  0.13487371089E+02  0.59981782623E+01  0.55074268520E+01  0.15754969752E+02  0.00000000000E+00 0. -1.
<mgrwt>
<rscale>  0 0.93804979E+02</rscale>
<asrwt>0</asrwt>
<pdfrwt beam="2">  1        1 0.15614157E-02 0.93804979E+02</pdfrwt>
<pdfrwt beam="1">  1       -1 0.33346213E-01 0.93804979E+02</pdfrwt>
<totfact> 0.62948402E+04</totfact>
</mgrwt>
</event>
<event>
 7    1  0.3565607E-009  0.9099984E+02  0.7818608E-02  0.1300448E+00
          1   -1    0    0  501    0  0.00000000000E+00  0.00000000000E+00  0.21004213662E+03  0.21004213668E+03  0.50400000000E-02 0. -1.
         -1   -1    0    0    0  501 -0.00000000000E+00 -0.00000000000E+00 -0.98563206231E+01  0.98563219117E+01  0.50400000000E-02 0.  1.
         23    2    1    2    0    0 -0.35527136788E-14  0.00000000000E+00  0.20018581600E+03  0.21989845859E+03  0.90999841565E+02 0.  0.
    9000005    2    3    3    0    0  0.28611768660E+02 -0.32201344199E+02  0.13458248324E+03  0.14141688660E+03  0.55435679387E+01 0.  0.
         22    1    3    3    0    0 -0.28611768660E+02  0.32201344199E+02  0.65603332757E+02  0.78481571996E+02  0.00000000000E+00 0. -1.
         22    1    4    4    0    0  0.12340935899E+02 -0.10333480300E+02  0.54137003695E+02  0.56479152641E+02  0.00000000000E+00 0.  1.
         22    1    4    4    0    0  0.16270832761E+02 -0.21867863900E+02  0.80445479544E+02  0.84937733954E+02  0.00000000000E+00 0.  1.
<mgrwt>
<rscale>  0 0.90999842E+02</rscale>
<asrwt>0</asrwt>
<pdfrwt beam="1">  1        1 0.32314174E-01 0.90999842E+02</pdfrwt>
<pdfrwt beam="2">  1       -1 0.15163572E-02 0.90999842E+02</pdfrwt>
<totfact> 0.12016311E+05</totfact>
</mgrwt>
</event>
<event>
 7    1  0.3565607E-009  0.9069231E+02  0.7818608E-02  0.1301184E+00
          1   -1    0    0  501    0  0.00000000000E+00  0.00000000000E+00  0.54356580552E+02  0.54356580786E+02  0.50400000000E-02 0. -1.
         -1   -1    0    0    0  501 -0.00000000000E+00 -0.00000000000E+00 -0.37829343457E+02  0.37829343793E+02  0.50400000000E-02 0.  1.
         23    2    1    2    0    0  0.00000000000E+00  0.00000000000E+00  0.16527237095E+02  0.92185924578E+02  0.90692310172E+02 0.  0.
    9000005    2    3    3    0    0  0.11356176441E+02  0.33530176852E+02  0.36126851056E+02  0.51721367611E+02  0.10803471536E+02 0.  0.
         22    1    3    3    0    0 -0.11356176441E+02 -0.33530176852E+02 -0.19599613961E+02  0.40464556967E+02  0.00000000000E+00 0.  1.
         22    1    4    4    0    0  0.74066551801E+01  0.82638464770E+01  0.14294038912E+02  0.18096111405E+02  0.00000000000E+00 0. -1.
         22    1    4    4    0    0  0.39495212606E+01  0.25266330375E+02  0.21832812145E+02  0.33625256207E+02  0.00000000000E+00 0. -1.
<mgrwt>
<rscale>  0 0.90692310E+02</rscale>
<asrwt>0</asrwt>
<pdfrwt beam="1">  1        1 0.83625509E-02 0.90692310E+02</pdfrwt>
<pdfrwt beam="2">  1       -1 0.58198990E-02 0.90692310E+02</pdfrwt>
<totfact> 0.96365344E+04</totfact>
</mgrwt>
</event>
<event>
 7    1  0.3565607E-009  0.7349037E+02  0.7818608E-02  0.1348611E+00
         -1   -1    0    0    0  501 -0.00000000000E+00  0.00000000000E+00  0.21859579433E+02  0.21859580014E+02  0.50400000000E-02 0.  1.
          1   -1    0    0  501    0  0.00000000000E+00 -0.00000000000E+00 -0.61767363147E+02  0.61767363353E+02  0.50400000000E-02 0. -1.
         23    2    1    2    0    0  0.00000000000E+00  0.00000000000E+00 -0.39907783715E+02  0.83626943367E+02  0.73490369817E+02 0.  0.
    9000005    2    3    3    0    0  0.18975217372E+02 -0.29111685707E+02 -0.15546460915E+02  0.41188480063E+02  0.15724163695E+02 0.  0.
         22    1    3    3    0    0 -0.18975217372E+02  0.29111685707E+02 -0.24361322799E+02  0.42438463304E+02  0.00000000000E+00 0.  1.
         22    1    4    4    0    0  0.38837230503E+01 -0.10416119240E+02 -0.12880711859E+02  0.17014452173E+02  0.00000000000E+00 0. -1.
         22    1    4    4    0    0  0.15091494322E+02 -0.18695566467E+02 -0.26657490560E+01  0.24174027890E+02  0.00000000000E+00 0. -1.
<mgrwt>
<rscale>  0 0.73490370E+02</rscale>
<asrwt>0</asrwt>
<pdfrwt beam="2">  1        1 0.95026712E-02 0.73490370E+02</pdfrwt>
<pdfrwt beam="1">  1       -1 0.33630123E-02 0.73490370E+02</pdfrwt>
<totfact> 0.17424817E+05</totfact>
</mgrwt>
</event>
<event>
 7    1  0.3565607E-009  0.8881262E+02  0.7818608E-02  0.1305753E+00
         -1   -1    0    0    0  501 -0.00000000000E+00  0.00000000000E+00  0.17997393403E+01  0.17997463973E+01  0.50400000000E-02 0.  1.
          1   -1    0    0  501    0  0.00000000000E+00 -0.00000000000E+00 -0.10956677053E+04  0.10956677053E+04  0.50400000000E-02 0. -1.
         23    2    1    2    0    0  0.00000000000E+00  0.00000000000E+00 -0.10938679660E+04  0.10974674517E+04  0.88812615139E+02 0.  0.
    9000005    2    3    3    0    0  0.25806903438E+02  0.18328067919E+02 -0.92527211993E+03  0.92592598839E+03  0.14440419684E+02 0.  0.
         22    1    3    3    0    0 -0.25806903438E+02 -0.18328067919E+02 -0.16859584606E+03  0.17154146334E+03  0.00000000000E+00 0.  1.
         22    1    4    4    0    0  0.54781995230E+01  0.10379570079E+02 -0.21653797287E+03  0.21685580426E+03  0.00000000000E+00 0. -1.
         22    1    4    4    0    0  0.20328703915E+02  0.79484978399E+01 -0.70873414706E+03  0.70907018414E+03  0.00000000000E+00 0. -1.
<mgrwt>
<rscale>  0 0.88812615E+02</rscale>
<asrwt>0</asrwt>
<pdfrwt beam="2">  1        1 0.16856373E+00 0.88812615E+02</pdfrwt>
<pdfrwt beam="1">  1       -1 0.27688440E-03 0.88812615E+02</pdfrwt>
<totfact> 0.14168791E+05</totfact>
</mgrwt>
</event>
<event>
 7    1  0.3565607E-009  0.9213615E+02  0.7818608E-02  0.1297760E+00
         -1   -1    0    0    0  501 -0.00000000000E+00  0.00000000000E+00  0.51953750647E+01  0.51953775094E+01  0.50400000000E-02 0.  1.
          1   -1    0    0  501    0  0.00000000000E+00 -0.00000000000E+00 -0.40849162051E+03  0.40849162054E+03  0.50400000000E-02 0. -1.
         23    2    1    2    0    0  0.00000000000E+00 -0.35527136788E-14 -0.40329624544E+03  0.41368699805E+03  0.92136153413E+02 0.  0.
    9000005    2    3    3    0    0 -0.40259931835E+02 -0.20154738007E+02 -0.16150962879E+03  0.16774423322E+03  0.50687289749E+01 0.  0.
         22    1    3    3    0    0  0.40259931835E+02  0.20154738007E+02 -0.24178661666E+03  0.24594276482E+03  0.00000000000E+00 0.  1.
         22    1    4    4    0    0 -0.25833303761E+02 -0.15577232888E+02 -0.10879535760E+03  0.11290013111E+03  0.00000000000E+00 0. -1.
         22    1    4    4    0    0 -0.14426628075E+02 -0.45775051182E+01 -0.52714271185E+02  0.54844102119E+02  0.00000000000E+00 0. -1.
<mgrwt>
<rscale>  0 0.92136153E+02</rscale>
<asrwt>0</asrwt>
<pdfrwt beam="2">  1        1 0.62844840E-01 0.92136153E+02</pdfrwt>
<pdfrwt beam="1">  1       -1 0.79928898E-03 0.92136153E+02</pdfrwt>
<totfact> 0.13163891E+05</totfact>
</mgrwt>
</event>
<event>
 7    1  0.3565607E-009  0.9836701E+02  0.7818608E-02  0.1283768E+00
          1   -1    0    0  501    0  0.00000000000E+00  0.00000000000E+00  0.28304521260E+02  0.28304521709E+02  0.50400000000E-02 0. -1.
         -1   -1    0    0    0  501 -0.00000000000E+00 -0.00000000000E+00 -0.85463983393E+02  0.85463983542E+02  0.50400000000E-02 0.  1.
         23    2    1    2    0    0  0.00000000000E+00 -0.88817841970E-15 -0.57159462133E+02  0.11376850525E+03  0.98367010098E+02 0.  0.
    9000005    2    3    3    0    0 -0.42969504586E+02 -0.64491486198E+01 -0.23191225773E+01  0.43801136536E+02  0.50191025089E+01 0.  0.
         22    1    3    3    0    0  0.42969504586E+02  0.64491486198E+01 -0.54840339556E+02  0.69967368715E+02  0.00000000000E+00 0.  1.
         22    1    4    4    0    0 -0.27223924410E+02 -0.64835560405E+01 -0.19045961596E+01  0.28050063204E+02  0.00000000000E+00 0.  1.
         22    1    4    4    0    0 -0.15745580176E+02  0.34407420681E-01 -0.41452641763E+00  0.15751073332E+02  0.00000000000E+00 0.  1.
<mgrwt>
<rscale>  0 0.98367010E+02</rscale>
<asrwt>0</asrwt>
<pdfrwt beam="1">  1        1 0.43545418E-02 0.98367010E+02</pdfrwt>
<pdfrwt beam="2">  1       -1 0.13148305E-01 0.98367010E+02</pdfrwt>
<totfact> 0.68871155E+04</totfact>
</mgrwt>
</event>
<event>
 7    1  0.3565607E-009  0.9074492E+02  0.7818608E-02  0.1301058E+00
          1   -1    0    0  501    0  0.00000000000E+00  0.00000000000E+00  0.79627580515E+03  0.79627580516E+03  0.50400000000E-02 0. -1.
         -1   -1    0    0    0  501 -0.00000000000E+00 -0.00000000000E+00 -0.25853582583E+01  0.25853631709E+01  0.50400000000E-02 0.  1.
         23    2    1    2    0    0  0.35527136788E-14 -0.35527136788E-14  0.79369044689E+03  0.79886116834E+03  0.90744921562E+02 0.  0.
    9000005    2    3    3    0    0  0.29881089733E+02 -0.22219595464E+02  0.62076017985E+03  0.62196722496E+03  0.10650731614E+02 0.  0.
         22    1    3    3    0    0 -0.29881089733E+02  0.22219595464E+02  0.17293026704E+03  0.17689394338E+03  0.00000000000E+00 0.  1.
         22    1    4    4    0    0  0.24023640115E+02 -0.21047762033E+02  0.56122403446E+03  0.56213215566E+03  0.00000000000E+00 0. -1.
         22    1    4    4    0    0  0.58574496182E+01 -0.11718334313E+01  0.59536145393E+02  0.59835069298E+02  0.00000000000E+00 0. -1.
<mgrwt>
<rscale>  0 0.90744922E+02</rscale>
<asrwt>0</asrwt>
<pdfrwt beam="1">  1        1 0.12250381E+00 0.90744922E+02</pdfrwt>
<pdfrwt beam="2">  1       -1 0.39774832E-03 0.90744922E+02</pdfrwt>
<totfact> 0.14314053E+05</totfact>
</mgrwt>
</event>
<event>
 7    1  0.3565607E-009  0.9043970E+02  0.7818608E-02  0.1301790E+00
         -1   -1    0    0    0  501 -0.00000000000E+00  0.00000000000E+00  0.16191535687E+02  0.16191536471E+02  0.50400000000E-02 0.  1.
          1   -1    0    0  501    0  0.00000000000E+00 -0.00000000000E+00 -0.12629035174E+03  0.12629035184E+03  0.50400000000E-02 0. -1.
         23    2    1    2    0    0 -0.35527136788E-14  0.00000000000E+00 -0.11009881605E+03  0.14248188831E+03  0.90439699250E+02 0.  0.
    9000005    2    3    3    0    0  0.17908844427E+02 -0.98645104989E+01  0.59742306068E+01  0.24621855065E+02  0.12349455025E+02 0.  0.
         22    1    3    3    0    0 -0.17908844427E+02  0.98645104989E+01 -0.11607304666E+03  0.11786003324E+03  0.00000000000E+00 0. -1.
         22    1    4    4    0    0  0.12844176210E+02 -0.53307308898E+00  0.99123560111E+00  0.12893392782E+02  0.00000000000E+00 0. -1.
         22    1    4    4    0    0  0.50646682170E+01 -0.93314374099E+01  0.49829950057E+01  0.11728462282E+02  0.00000000000E+00 0. -1.
<mgrwt>
<rscale>  0 0.90439699E+02</rscale>
<asrwt>0</asrwt>
<pdfrwt beam="2">  1        1 0.19429284E-01 0.90439699E+02</pdfrwt>
<pdfrwt beam="1">  1       -1 0.24910056E-02 0.90439699E+02</pdfrwt>
<totfact> 0.11112209E+05</totfact>
</mgrwt>
</event>
<event>
 7    1  0.3565607E-009  0.9004396E+02  0.7818608E-02  0.1302745E+00
          1   -1    0    0  501    0  0.00000000000E+00  0.00000000000E+00  0.15883588508E+02  0.15883589308E+02  0.50400000000E-02 0. -1.
         -1   -1    0    0    0  501 -0.00000000000E+00 -0.00000000000E+00 -0.12761465780E+03  0.12761465790E+03  0.50400000000E-02 0.  1.
         23    2    1    2    0    0  0.00000000000E+00  0.00000000000E+00 -0.11173106930E+03  0.14349824721E+03  0.90043962078E+02 0.  0.
    9000005    2    3    3    0    0 -0.19005742649E+02  0.34746342120E+02 -0.88591082939E+02  0.97629025363E+02  0.10701405165E+02 0.  0.
         22    1    3    3    0    0  0.19005742649E+02 -0.34746342120E+02 -0.23139986357E+02  0.45869221849E+02  0.00000000000E+00 0. -1.
         22    1    4    4    0    0 -0.11720066448E+02  0.24995501718E+02 -0.71516825647E+02  0.76660233591E+02  0.00000000000E+00 0. -1.
         22    1    4    4    0    0 -0.72856762010E+01  0.97508404021E+01 -0.17074257293E+02  0.20968791771E+02  0.00000000000E+00 0. -1.
<mgrwt>
<rscale>  0 0.90043962E+02</rscale>
<asrwt>0</asrwt>
<pdfrwt beam="1">  1        1 0.24436291E-02 0.90043962E+02</pdfrwt>
<pdfrwt beam="2">  1       -1 0.19633024E-01 0.90043962E+02</pdfrwt>
<totfact> 0.80077807E+04</totfact>
</mgrwt>
</event>
<event>
 7    1  0.3565607E-009  0.9254870E+02  0.7818608E-02  0.1296794E+00
         -1   -1    0    0    0  501 -0.00000000000E+00  0.00000000000E+00  0.68651556039E+01  0.68651574539E+01  0.50400000000E-02 0.  1.
          1   -1    0    0  501    0  0.00000000000E+00 -0.00000000000E+00 -0.31191064096E+03  0.31191064100E+03  0.50400000000E-02 0. -1.
         23    2    1    2    0    0  0.00000000000E+00  0.00000000000E+00 -0.30504548536E+03  0.31877579845E+03  0.92548698231E+02 0.  0.
    9000005    2    3    3    0    0 -0.42873748228E+01 -0.44834105441E+02 -0.15855453595E+03  0.16551759524E+03  0.15101485734E+02 0.  0.
         22    1    3    3    0    0  0.42873748228E+01  0.44834105441E+02 -0.14649094941E+03  0.15325820321E+03  0.00000000000E+00 0.  1.
         22    1    4    4    0    0 -0.13618479939E+01 -0.36054578640E+02 -0.14240395458E+03  0.14690361994E+03  0.00000000000E+00 0.  1.
         22    1    4    4    0    0 -0.29255268289E+01 -0.87795268011E+01 -0.16150581366E+02  0.18613975302E+02  0.00000000000E+00 0.  1.
<mgrwt>
<rscale>  0 0.92548698E+02</rscale>
<asrwt>0</asrwt>
<pdfrwt beam="2">  1        1 0.47986242E-01 0.92548698E+02</pdfrwt>
<pdfrwt beam="1">  1       -1 0.10561782E-02 0.92548698E+02</pdfrwt>
<totfact> 0.12403120E+05</totfact>
</mgrwt>
</event>
<event>
 7    1  0.3565607E-009  0.9347017E+02  0.7818608E-02  0.1294659E+00
          1   -1    0    0  501    0  0.00000000000E+00  0.00000000000E+00  0.32579741058E+03  0.32579741062E+03  0.50400000000E-02 0. -1.
         -1   -1    0    0    0  501 -0.00000000000E+00 -0.00000000000E+00 -0.67040678901E+01  0.67040697846E+01  0.50400000000E-02 0.  1.
         23    2    1    2    0    0  0.00000000000E+00  0.00000000000E+00  0.31909334269E+03  0.33250148041E+03  0.93470172363E+02 0.  0.
    9000005    2    3    3    0    0  0.42311135907E+02 -0.19013603011E+02  0.16019951453E+03  0.16697505367E+03  0.80644137974E+01 0.  0.
         22    1    3    3    0    0 -0.42311135907E+02  0.19013603011E+02  0.15889382816E+03  0.16552642674E+03  0.00000000000E+00 0.  1.
         22    1    4    4    0    0  0.33968114017E+02 -0.14040071295E+02  0.13651019723E+03  0.14137181586E+03  0.00000000000E+00 0.  1.
         22    1    4    4    0    0  0.83430218899E+01 -0.49735317167E+01  0.23689317297E+02  0.25603237803E+02  0.00000000000E+00 0.  1.
<mgrwt>
<rscale>  0 0.93470172E+02</rscale>
<asrwt>0</asrwt>
<pdfrwt beam="1">  1        1 0.50122675E-01 0.93470172E+02</pdfrwt>
<pdfrwt beam="2">  1       -1 0.10313953E-02 0.93470172E+02</pdfrwt>
<totfact> 0.12178437E+05</totfact>
</mgrwt>
</event>
<event>
 7    1  0.4069869E-009  0.8790064E+02  0.7818608E-02  0.1308017E+00
          1   -1    0    0  501    0  0.00000000000E+00  0.00000000000E+00  0.20711294196E+02  0.20711294809E+02  0.50400000000E-02 0. -1.
         -1   -1    0    0    0  501 -0.00000000000E+00 -0.00000000000E+00 -0.93264591409E+02  0.93264591545E+02  0.50400000000E-02 0.  1.
         23    2    1    2    0    0  0.17763568394E-14  0.35527136788E-14 -0.72553297213E+02  0.11397588635E+03  0.87900635571E+02 0.  0.
    9000005    2    3    3    0    0  0.86925645420E+01  0.27909729544E+02 -0.77936729497E+02  0.84252242152E+02  0.13030457451E+02 0.  0.
         22    1    3    3    0    0 -0.86925645420E+01 -0.27909729544E+02  0.53834322839E+01  0.29723644203E+02  0.00000000000E+00 0. -1.
         22    1    4    4    0    0  0.11862722251E+01  0.49899968684E+01 -0.40691096976E+01  0.65471340501E+01  0.00000000000E+00 0.  1.
         22    1    4    4    0    0  0.75062923169E+01  0.22919732675E+02 -0.73867619799E+02  0.77705108101E+02  0.00000000000E+00 0.  1.
<mgrwt>
<rscale>  0 0.87900636E+02</rscale>
<asrwt>0</asrwt>
<pdfrwt beam="1">  1        1 0.31863531E-02 0.87900636E+02</pdfrwt>
<pdfrwt beam="2">  1       -1 0.14348399E-01 0.87900636E+02</pdfrwt>
<totfact> 0.90532749E+04</totfact>
</mgrwt>
</event>
<event>
 7    1  0.3565607E-009  0.9114445E+02  0.7818608E-02  0.1300104E+00
         -1   -1    0    0    0  501 -0.00000000000E+00  0.00000000000E+00  0.99958738999E+02  0.99958739126E+02  0.50400000000E-02 0.  1.
          1   -1    0    0  501    0  0.00000000000E+00 -0.00000000000E+00 -0.20776848998E+02  0.20776849609E+02  0.50400000000E-02 0. -1.
         23    2    1    2    0    0  0.71054273576E-14  0.88817841970E-15  0.79181890001E+02  0.12073558874E+03  0.91144449547E+02 0.  0.
    9000005    2    3    3    0    0  0.43971368111E+02  0.42177512078E+01  0.27588321255E+02  0.52815290041E+02  0.87788811166E+01 0.  0.
         22    1    3    3    0    0 -0.43971368111E+02 -0.42177512078E+01  0.51593568746E+02  0.67920298694E+02  0.00000000000E+00 0.  1.
         22    1    4    4    0    0  0.24662147424E+02  0.25052967274E+01  0.20525354921E+02  0.32183663898E+02  0.00000000000E+00 0.  1.
         22    1    4    4    0    0  0.19309220687E+02  0.17124544804E+01  0.70629663341E+01  0.20631626143E+02  0.00000000000E+00 0.  1.
<mgrwt>
<rscale>  0 0.91144450E+02</rscale>
<asrwt>0</asrwt>
<pdfrwt beam="2">  1        1 0.31964384E-02 0.91144450E+02</pdfrwt>
<pdfrwt beam="1">  1       -1 0.15378267E-01 0.91144450E+02</pdfrwt>
<totfact> 0.81451401E+04</totfact>
</mgrwt>
</event>
<event>
 7    1  0.3565607E-009  0.9059144E+02  0.7818608E-02  0.1301426E+00
          1   -1    0    0  501    0  0.00000000000E+00  0.00000000000E+00  0.14671872528E+03  0.14671872537E+03  0.50400000000E-02 0. -1.
         -1   -1    0    0    0  501 -0.00000000000E+00 -0.00000000000E+00 -0.13983914179E+02  0.13983915087E+02  0.50400000000E-02 0.  1.
         23    2    1    2    0    0  0.00000000000E+00  0.17763568394E-14  0.13273481111E+03  0.16070264046E+03  0.90591437626E+02 0.  0.
    9000005    2    3    3    0    0 -0.22634836690E+02 -0.14884976721E+02  0.13045908804E+03  0.13351666467E+03  0.85573201645E+01 0.  0.
         22    1    3    3    0    0  0.22634836690E+02  0.14884976721E+02  0.22757230629E+01  0.27185975786E+02  0.00000000000E+00 0.  1.
         22    1    4    4    0    0 -0.19455013537E+02 -0.10109462600E+02  0.88913485257E+02  0.91576780062E+02  0.00000000000E+00 0.  1.
         22    1    4    4    0    0 -0.31798231522E+01 -0.47755141211E+01  0.41545602785E+02  0.41939884611E+02  0.00000000000E+00 0.  1.
<mgrwt>
<rscale>  0 0.90591438E+02</rscale>
<asrwt>0</asrwt>
<pdfrwt beam="1">  1        1 0.22572112E-01 0.90591438E+02</pdfrwt>
<pdfrwt beam="2">  1       -1 0.21513715E-02 0.90591438E+02</pdfrwt>
<totfact> 0.11363569E+05</totfact>
</mgrwt>
</event>
<event>
 7    1  0.3565607E-009  0.9253199E+02  0.7818608E-02  0.1296833E+00
          1   -1    0    0  501    0  0.00000000000E+00  0.00000000000E+00  0.42164883975E+02  0.42164884277E+02  0.50400000000E-02 0. -1.
         -1   -1    0    0    0  501 -0.00000000000E+00 -0.00000000000E+00 -0.50765997463E+02  0.50765997713E+02  0.50400000000E-02 0.  1.
         23    2    1    2    0    0  0.00000000000E+00 -0.17763568394E-14 -0.86011134876E+01  0.92930881990E+02  0.92531992706E+02 0.  0.
    9000005    2    3    3    0    0  0.15727736363E+02  0.15837494897E+02  0.35761331175E+02  0.43269886911E+02  0.97581950278E+01 0.  0.
         22    1    3    3    0    0 -0.15727736363E+02 -0.15837494897E+02 -0.44362444663E+02  0.49660995078E+02  0.00000000000E+00 0.  1.
         22    1    4    4    0    0  0.14153311067E+02  0.11781979974E+02  0.21244089541E+02  0.28114811162E+02  0.00000000000E+00 0.  1.
         22    1    4    4    0    0  0.15744252961E+01  0.40555149235E+01  0.14517241634E+02  0.15155075749E+02  0.00000000000E+00 0.  1.
<mgrwt>
<rscale>  0 0.92531993E+02</rscale>
<asrwt>0</asrwt>
<pdfrwt beam="1">  1        1 0.64869052E-02 0.92531993E+02</pdfrwt>
<pdfrwt beam="2">  1       -1 0.78101535E-02 0.92531993E+02</pdfrwt>
<totfact> 0.87661759E+04</totfact>
</mgrwt>
</event>
<event>
 7    1  0.3565607E-009  0.8879479E+02  0.7818608E-02  0.1305797E+00
          1   -1    0    0  501    0  0.00000000000E+00  0.00000000000E+00  0.85632396042E+03  0.85632396043E+03  0.50400000000E-02 0. -1.
         -1   -1    0    0    0  501 -0.00000000000E+00 -0.00000000000E+00 -0.23018466405E+01  0.23018521581E+01  0.50400000000E-02 0.  1.
         23    2    1    2    0    0 -0.71054273576E-14  0.00000000000E+00  0.85402211378E+03  0.85862581259E+03  0.88794792789E+02 0.  0.
    9000005    2    3    3    0    0 -0.33534717566E+02 -0.14235336136E+02  0.66744709421E+03  0.66852725919E+03  0.10763393440E+02 0.  0.
         22    1    3    3    0    0  0.33534717566E+02  0.14235336136E+02  0.18657501957E+03  0.19009855340E+03  0.00000000000E+00 0.  1.
         22    1    4    4    0    0 -0.30590317336E+02 -0.15747334931E+02  0.58199568275E+03  0.58301176730E+03  0.00000000000E+00 0. -1.
         22    1    4    4    0    0 -0.29444002306E+01  0.15119987951E+01  0.85451411460E+02  0.85515491893E+02  0.00000000000E+00 0. -1.
<mgrwt>
<rscale>  0 0.88794793E+02</rscale>
<asrwt>0</asrwt>
<pdfrwt beam="1">  1        1 0.13174225E+00 0.88794793E+02</pdfrwt>
<pdfrwt beam="2">  1       -1 0.35413039E-03 0.88794793E+02</pdfrwt>
<totfact> 0.15039423E+05</totfact>
</mgrwt>
</event>
<event>
 7    1  0.3565607E-009  0.9053191E+02  0.7818608E-02  0.1301569E+00
          1   -1    0    0  501    0  0.00000000000E+00  0.00000000000E+00  0.12391944215E+03  0.12391944225E+03  0.50400000000E-02 0. -1.
         -1   -1    0    0    0  501 -0.00000000000E+00 -0.00000000000E+00 -0.16534988734E+02  0.16534989502E+02  0.50400000000E-02 0.  1.
         23    2    1    2    0    0  0.00000000000E+00  0.00000000000E+00  0.10738445342E+03  0.14045443175E+03  0.90531909092E+02 0.  0.
    9000005    2    3    3    0    0  0.20568312472E+02 -0.93810415349E+01  0.11393853085E+03  0.11691690110E+03  0.13285839528E+02 0.  0.
         22    1    3    3    0    0 -0.20568312472E+02  0.93810415349E+01 -0.65540774364E+01  0.23537530653E+02  0.00000000000E+00 0.  1.
         22    1    4    4    0    0  0.17586028299E+02 -0.12583828461E+02  0.99829191937E+02  0.10214445013E+03  0.00000000000E+00 0. -1.
         22    1    4    4    0    0  0.29822841723E+01  0.32027869257E+01  0.14109338915E+02  0.14772450968E+02  0.00000000000E+00 0. -1.
<mgrwt>
<rscale>  0 0.90531909E+02</rscale>
<asrwt>0</asrwt>
<pdfrwt beam="1">  1        1 0.19064530E-01 0.90531909E+02</pdfrwt>
<pdfrwt beam="2">  1       -1 0.25438444E-02 0.90531909E+02</pdfrwt>
<totfact> 0.11044798E+05</totfact>
</mgrwt>
</event>
<event>
 7    1  0.3565607E-009  0.1074374E+03  0.7818608E-02  0.1265390E+00
         -1   -1    0    0    0  501 -0.00000000000E+00  0.00000000000E+00  0.34866686013E+02  0.34866686378E+02  0.50400000000E-02 0.  1.
          1   -1    0    0  501    0  0.00000000000E+00 -0.00000000000E+00 -0.82763702955E+02  0.82763703108E+02  0.50400000000E-02 0. -1.
         23    2    1    2    0    0  0.00000000000E+00  0.00000000000E+00 -0.47897016941E+02  0.11763038949E+03  0.10743735058E+03 0.  0.
    9000005    2    3    3    0    0 -0.32335121562E+02 -0.74161112336E+01  0.21565215036E+02  0.40652727379E+02  0.93288236961E+01 0.  0.
         22    1    3    3    0    0  0.32335121562E+02  0.74161112336E+01 -0.69462231977E+02  0.76977662107E+02  0.00000000000E+00 0. -1.
         22    1    4    4    0    0 -0.33789230424E+01  0.20915943073E+01  0.21749420130E+01  0.45301501556E+01  0.00000000000E+00 0. -1.
         22    1    4    4    0    0 -0.28956198520E+02 -0.95077055409E+01  0.19390273023E+02  0.36122577223E+02  0.00000000000E+00 0. -1.
<mgrwt>
<rscale>  0 0.10743735E+03</rscale>
<asrwt>0</asrwt>
<pdfrwt beam="2">  1        1 0.12732877E-01 0.10743735E+03</pdfrwt>
<pdfrwt beam="1">  1       -1 0.53641056E-02 0.10743735E+03</pdfrwt>
<totfact> 0.64237499E+04</totfact>
</mgrwt>
</event>
<event>
 7    1  0.3565607E-009  0.8942884E+02  0.7818608E-02  0.1304241E+00
         -1   -1    0    0    0  501 -0.00000000000E+00  0.00000000000E+00  0.86529607452E+02  0.86529607599E+02  0.50400000000E-02 0.  1.
          1   -1    0    0  501    0  0.00000000000E+00 -0.00000000000E+00 -0.23106305095E+02  0.23106305645E+02  0.50400000000E-02 0. -1.
         23    2    1    2    0    0 -0.11102230246E-15  0.00000000000E+00  0.63423302357E+02  0.10963591324E+03  0.89428844289E+02 0.  0.
    9000005    2    3    3    0    0 -0.79927134836E+00 -0.43798003716E+02  0.23569325205E+02  0.50413928651E+02  0.81943362876E+01 0.  0.
         22    1    3    3    0    0  0.79927134836E+00  0.43798003716E+02  0.39853977152E+02  0.59221984592E+02  0.00000000000E+00 0.  1.
         22    1    4    4    0    0 -0.44343632738E+00  0.24509462307E+00  0.40979907780E+00  0.65164594287E+00  0.00000000000E+00 0.  1.
         22    1    4    4    0    0 -0.35583502098E+00 -0.44043098339E+02  0.23159526127E+02  0.49762282708E+02  0.00000000000E+00 0.  1.
<mgrwt>
<rscale>  0 0.89428844E+02</rscale>
<asrwt>0</asrwt>
<pdfrwt beam="2">  1        1 0.35548162E-02 0.89428844E+02</pdfrwt>
<pdfrwt beam="1">  1       -1 0.13312247E-01 0.89428844E+02</pdfrwt>
<totfact> 0.87765474E+04</totfact>
</mgrwt>
</event>
<event>
 7    1  0.3565607E-009  0.9126618E+02  0.7818608E-02  0.1299814E+00
         -1   -1    0    0    0  501 -0.00000000000E+00  0.00000000000E+00  0.64824593651E+02  0.64824593847E+02  0.50400000000E-02 0.  1.
          1   -1    0    0  501    0  0.00000000000E+00 -0.00000000000E+00 -0.32123281145E+02  0.32123281540E+02  0.50400000000E-02 0. -1.
         23    2    1    2    0    0  0.00000000000E+00  0.71054273576E-14  0.32701312506E+02  0.96947875387E+02  0.91266175018E+02 0.  0.
    9000005    2    3    3    0    0 -0.13212284231E+02 -0.34170579839E+02  0.45218558054E+02  0.58232575863E+02  0.20302507484E+01 0.  0.
         22    1    3    3    0    0  0.13212284231E+02  0.34170579839E+02 -0.12517245548E+02  0.38715299524E+02  0.00000000000E+00 0. -1.
         22    1    4    4    0    0 -0.10403619666E+02 -0.28961524258E+02  0.37791995789E+02  0.48736435397E+02  0.00000000000E+00 0. -1.
         22    1    4    4    0    0 -0.28086645649E+01 -0.52090555808E+01  0.74265622647E+01  0.94961404662E+01  0.00000000000E+00 0. -1.
<mgrwt>
<rscale>  0 0.91266175E+02</rscale>
<asrwt>0</asrwt>
<pdfrwt beam="2">  1        1 0.49420433E-02 0.91266175E+02</pdfrwt>
<pdfrwt beam="1">  1       -1 0.99730144E-02 0.91266175E+02</pdfrwt>
<totfact> 0.87391699E+04</totfact>
</mgrwt>
</event>
<event>
 7    1  0.3565607E-009  0.9170480E+02  0.7818608E-02  0.1298775E+00
         -1   -1    0    0    0  501 -0.00000000000E+00  0.00000000000E+00  0.24920958308E+01  0.24921009272E+01  0.50400000000E-02 0.  1.
          1   -1    0    0  501    0  0.00000000000E+00 -0.00000000000E+00 -0.84364345592E+03  0.84364345593E+03  0.50400000000E-02 0. -1.
         23    2    1    2    0    0  0.88817841970E-15  0.00000000000E+00 -0.84115136009E+03  0.84613555686E+03  0.91704798165E+02 0.  0.
    9000005    2    3    3    0    0 -0.54209778284E+01  0.12655944083E+02 -0.82360233539E+03  0.82383021694E+03  0.13633031890E+02 0.  0.
         22    1    3    3    0    0  0.54209778284E+01 -0.12655944083E+02 -0.17549024699E+02  0.22305339925E+02  0.00000000000E+00 0.  1.
         22    1    4    4    0    0 -0.52164075020E+01  0.14251290055E+02 -0.51467536480E+03  0.51489905933E+03  0.00000000000E+00 0. -1.
         22    1    4    4    0    0 -0.20457032642E+00 -0.15953459718E+01 -0.30892697059E+03  0.30893115760E+03  0.00000000000E+00 0. -1.
<mgrwt>
<rscale>  0 0.91704798E+02</rscale>
<asrwt>0</asrwt>
<pdfrwt beam="2">  1        1 0.12979107E+00 0.91704798E+02</pdfrwt>
<pdfrwt beam="1">  1       -1 0.38340042E-03 0.91704798E+02</pdfrwt>
<totfact> 0.13838273E+05</totfact>
</mgrwt>
</event>
<event>
 7    1  0.3565607E-009  0.9222551E+02  0.7818608E-02  0.1297550E+00
         -1   -1    0    0    0  501 -0.00000000000E+00  0.00000000000E+00  0.69217769688E+01  0.69217788037E+01  0.50400000000E-02 0.  1.
          1   -1    0    0  501    0  0.00000000000E+00 -0.00000000000E+00 -0.30720230651E+03  0.30720230655E+03  0.50400000000E-02 0. -1.
         23    2    1    2    0    0  0.71054273576E-14 -0.17763568394E-14 -0.30028052954E+03  0.31412408535E+03  0.92225509370E+02 0.  0.
    9000005    2    3    3    0    0  0.39928213450E+02 -0.11797375951E+02 -0.82884029515E+02  0.92776669440E+02  0.20755084030E+01 0.  0.
         22    1    3    3    0    0 -0.39928213450E+02  0.11797375951E+02 -0.21739650002E+03  0.22134741591E+03  0.00000000000E+00 0. -1.
         22    1    4    4    0    0  0.33179602642E+02 -0.89827461662E+01 -0.68232914243E+02  0.76402266630E+02  0.00000000000E+00 0. -1.
         22    1    4    4    0    0  0.67486108074E+01 -0.28146297850E+01 -0.14651115272E+02  0.16374402810E+02  0.00000000000E+00 0. -1.
<mgrwt>
<rscale>  0 0.92225509E+02</rscale>
<asrwt>0</asrwt>
<pdfrwt beam="2">  1        1 0.47261883E-01 0.92225509E+02</pdfrwt>
<pdfrwt beam="1">  1       -1 0.10648891E-02 0.92225509E+02</pdfrwt>
<totfact> 0.12483465E+05</totfact>
</mgrwt>
</event>
<event>
 7    1  0.3565607E-009  0.8766937E+02  0.7818608E-02  0.1308596E+00
         -1   -1    0    0    0  501 -0.00000000000E+00  0.00000000000E+00  0.18827614173E+03  0.18827614179E+03  0.50400000000E-02 0.  1.
          1   -1    0    0  501    0  0.00000000000E+00 -0.00000000000E+00 -0.10205645028E+02  0.10205646272E+02  0.50400000000E-02 0. -1.
         23    2    1    2    0    0  0.00000000000E+00  0.00000000000E+00  0.17807049670E+03  0.19848178807E+03  0.87669369791E+02 0.  0.
    9000005    2    3    3    0    0 -0.36937253896E+02 -0.23518600088E+02  0.88189599740E+02  0.98501485438E+02  0.27661987948E+01 0.  0.
         22    1    3    3    0    0  0.36937253896E+02  0.23518600088E+02  0.89880896958E+02  0.99980302628E+02  0.00000000000E+00 0.  1.
         22    1    4    4    0    0 -0.75604062613E+01 -0.43694029692E+01  0.20011797456E+02  0.21833997860E+02  0.00000000000E+00 0. -1.
         22    1    4    4    0    0 -0.29376847635E+02 -0.19149197119E+02  0.68177802284E+02  0.76667487578E+02  0.00000000000E+00 0. -1.
<mgrwt>
<rscale>  0 0.87669370E+02</rscale>
<asrwt>0</asrwt>
<pdfrwt beam="2">  1        1 0.15700993E-02 0.87669370E+02</pdfrwt>
<pdfrwt beam="1">  1       -1 0.28965562E-01 0.87669370E+02</pdfrwt>
<totfact> 0.78186278E+04</totfact>
</mgrwt>
</event>
<event>
 7    1  0.3565607E-009  0.8963283E+02  0.7818608E-02  0.1303743E+00
          1   -1    0    0  501    0  0.00000000000E+00  0.00000000000E+00  0.94517401538E+02  0.94517401672E+02  0.50400000000E-02 0. -1.
         -1   -1    0    0    0  501 -0.00000000000E+00 -0.00000000000E+00 -0.21250170371E+02  0.21250170968E+02  0.50400000000E-02 0.  1.
         23    2    1    2    0    0  0.00000000000E+00  0.17763568394E-14  0.73267231167E+02  0.11576757264E+03  0.89632827202E+02 0.  0.
    9000005    2    3    3    0    0 -0.32541234313E+02 -0.13238612509E+02  0.71415048641E+00  0.35156516897E+02  0.11304325107E+01 0.  0.
         22    1    3    3    0    0  0.32541234313E+02  0.13238612509E+02  0.72553080681E+02  0.80611055743E+02  0.00000000000E+00 0. -1.
         22    1    4    4    0    0 -0.66844444424E+01 -0.23646183065E+01  0.45700989379E+00  0.71050739111E+01  0.00000000000E+00 0. -1.
         22    1    4    4    0    0 -0.25856789870E+02 -0.10873994203E+02  0.25714059262E+00  0.28051442986E+02  0.00000000000E+00 0. -1.
<mgrwt>
<rscale>  0 0.89632827E+02</rscale>
<asrwt>0</asrwt>
<pdfrwt beam="1">  1        1 0.14541139E-01 0.89632827E+02</pdfrwt>
<pdfrwt beam="2">  1       -1 0.32692570E-02 0.89632827E+02</pdfrwt>
<totfact> 0.10841442E+05</totfact>
</mgrwt>
</event>
<event>
 7    1  0.3565607E-009  0.9102868E+02  0.7818608E-02  0.1300380E+00
          1   -1    0    0  501    0  0.00000000000E+00  0.00000000000E+00  0.21081435201E+03  0.21081435207E+03  0.50400000000E-02 0. -1.
         -1   -1    0    0    0  501 -0.00000000000E+00 -0.00000000000E+00 -0.98264421505E+01  0.98264434430E+01  0.50400000000E-02 0.  1.
         23    2    1    2    0    0  0.00000000000E+00  0.00000000000E+00  0.20098790986E+03  0.22064079551E+03  0.91028680837E+02 0.  0.
    9000005    2    3    3    0    0  0.25938966523E+02  0.24598000090E+01  0.19028581225E+03  0.19247316349E+03  0.12583629111E+02 0.  0.
         22    1    3    3    0    0 -0.25938966523E+02 -0.24598000090E+01  0.10702097612E+02  0.28167632021E+02  0.00000000000E+00 0.  1.
         22    1    4    4    0    0  0.76059500723E+01  0.60216902740E+01  0.84082147948E+02  0.84639936400E+02  0.00000000000E+00 0. -1.
         22    1    4    4    0    0  0.18333016451E+02 -0.35618902650E+01  0.10620366430E+03  0.10783322709E+03  0.00000000000E+00 0. -1.
<mgrwt>
<rscale>  0 0.91028681E+02</rscale>
<asrwt>0</asrwt>
<pdfrwt beam="1">  1        1 0.32432974E-01 0.91028681E+02</pdfrwt>
<pdfrwt beam="2">  1       -1 0.15117606E-02 0.91028681E+02</pdfrwt>
<totfact> 0.12014703E+05</totfact>
</mgrwt>
</event>
<event>
 7    1  0.3565607E-009  0.8966285E+02  0.7818608E-02  0.1303670E+00
          1   -1    0    0  501    0  0.00000000000E+00  0.00000000000E+00  0.28528060072E+02  0.28528060517E+02  0.50400000000E-02 0. -1.
         -1   -1    0    0    0  501 -0.00000000000E+00 -0.00000000000E+00 -0.70451913912E+02  0.70451914093E+02  0.50400000000E-02 0.  1.
         23    2    1    2    0    0  0.00000000000E+00  0.35527136788E-14 -0.41923853841E+02  0.98979974610E+02  0.89662845443E+02 0.  0.
    9000005    2    3    3    0    0 -0.33689250159E+02 -0.23205267027E+02 -0.39293465851E+02  0.57987671246E+02  0.12047554272E+02 0.  0.
         22    1    3    3    0    0  0.33689250159E+02  0.23205267027E+02 -0.26303879894E+01  0.40992303363E+02  0.00000000000E+00 0. -1.
         22    1    4    4    0    0 -0.28626477952E+02 -0.20313458006E+02 -0.38506505179E+02  0.52104344898E+02  0.00000000000E+00 0.  1.
         22    1    4    4    0    0 -0.50627722062E+01 -0.28918090211E+01 -0.78696067236E+00  0.58833263488E+01  0.00000000000E+00 0.  1.
<mgrwt>
<rscale>  0 0.89662845E+02</rscale>
<asrwt>0</asrwt>
<pdfrwt beam="1">  1        1 0.43889324E-02 0.89662845E+02</pdfrwt>
<pdfrwt beam="2">  1       -1 0.10838756E-01 0.89662845E+02</pdfrwt>
<totfact> 0.90216317E+04</totfact>
</mgrwt>
</event>
<event>
 6    1  0.3565607E-009  0.3378846E+03  0.7818608E-02  0.1067700E+00
          1   -1    0    0  501    0  0.00000000000E+00  0.00000000000E+00  0.10741915213E+04  0.10741915213E+04  0.50400000000E-02 0. -1.
         -1   -1    0    0    0  501 -0.00000000000E+00 -0.00000000000E+00 -0.26570220569E+02  0.26570221047E+02  0.50400000000E-02 0.  1.
    9000005    2    1    2    0    0 -0.62444238394E+02 -0.38365122990E+02  0.10196503414E+04  0.10223172388E+04  0.86343783168E+01 0.  0.
         22    1    1    2    0    0  0.62444238394E+02  0.38365122990E+02  0.27970959332E+02  0.78444503546E+02  0.00000000000E+00 0.  1.
         22    1    3    3    0    0 -0.39083550939E+02 -0.27053808904E+02  0.70278993529E+03  0.70439557471E+03  0.00000000000E+00 0.  1.
         22    1    3    3    0    0 -0.23360687455E+02 -0.11311314086E+02  0.31686040608E+03  0.31792166407E+03  0.00000000000E+00 0.  1.
<mgrwt>
<rscale>  0 0.33788463E+03</rscale>
<asrwt>0</asrwt>
<pdfrwt beam="1">  1        1 0.16526018E+00 0.33788463E+03</pdfrwt>
<pdfrwt beam="2">  1       -1 0.40877276E-02 0.33788463E+03</pdfrwt>
<totfact> 0.33626751E+03</totfact>
</mgrwt>
</event>
<event>
 7    1  0.3565607E-009  0.9381742E+02  0.7818608E-02  0.1293862E+00
          1   -1    0    0  501    0  0.00000000000E+00  0.00000000000E+00  0.24078307496E+02  0.24078308023E+02  0.50400000000E-02 0. -1.
         -1   -1    0    0    0  501 -0.00000000000E+00 -0.00000000000E+00 -0.91386289183E+02  0.91386289322E+02  0.50400000000E-02 0.  1.
         23    2    1    2    0    0 -0.35527136788E-14  0.17763568394E-14 -0.67307981687E+02  0.11546459735E+03  0.93817422909E+02 0.  0.
    9000005    2    3    3    0    0  0.19508860548E+02 -0.12024314493E+02 -0.83183686588E+02  0.87585971392E+02  0.15053135602E+02 0.  0.
         22    1    3    3    0    0 -0.19508860548E+02  0.12024314493E+02  0.15875704900E+02  0.27878625953E+02  0.00000000000E+00 0. -1.
         22    1    4    4    0    0  0.20666405586E+02 -0.66470431662E+01 -0.70344826925E+02  0.73618463566E+02  0.00000000000E+00 0. -1.
         22    1    4    4    0    0 -0.11575450372E+01 -0.53772713272E+01 -0.12838859663E+02  0.13967507827E+02  0.00000000000E+00 0. -1.
<mgrwt>
<rscale>  0 0.93817423E+02</rscale>
<asrwt>0</asrwt>
<pdfrwt beam="1">  1        1 0.37043551E-02 0.93817423E+02</pdfrwt>
<pdfrwt beam="2">  1       -1 0.14059429E-01 0.93817423E+02</pdfrwt>
<totfact> 0.76858854E+04</totfact>
</mgrwt>
</event>
<event>
 7    1  0.3565607E-009  0.8882371E+02  0.7818608E-02  0.1305726E+00
          1   -1    0    0  501    0  0.00000000000E+00  0.00000000000E+00  0.50476611187E+03  0.50476611190E+03  0.50400000000E-02 0. -1.
         -1   -1    0    0    0  501 -0.00000000000E+00 -0.00000000000E+00 -0.39075761383E+01  0.39075793886E+01  0.50400000000E-02 0.  1.
         23    2    1    2    0    0  0.44408920985E-15  0.00000000000E+00  0.50085853574E+03  0.50867369129E+03  0.88823709611E+02 0.  0.
    9000005    2    3    3    0    0  0.31944814323E+01  0.35363798865E+02  0.39844381808E+03  0.40027822379E+03  0.14296058613E+02 0.  0.
         22    1    3    3    0    0 -0.31944814323E+01 -0.35363798865E+02  0.10241471766E+03  0.10839546750E+03  0.00000000000E+00 0.  1.
         22    1    4    4    0    0  0.21812731262E+01 -0.38481643958E+00  0.38020234438E+02  0.38084698540E+02  0.00000000000E+00 0.  1.
         22    1    4    4    0    0  0.10132083062E+01  0.35748615305E+02  0.36042358364E+03  0.36219352525E+03  0.00000000000E+00 0.  1.
<mgrwt>
<rscale>  0 0.88823710E+02</rscale>
<asrwt>0</asrwt>
<pdfrwt beam="1">  1        1 0.77656318E-01 0.88823710E+02</pdfrwt>
<pdfrwt beam="2">  1       -1 0.60116587E-03 0.88823710E+02</pdfrwt>
<totfact> 0.14940471E+05</totfact>
</mgrwt>
</event>
<event>
 7    1  0.3565607E-009  0.9122788E+02  0.7818608E-02  0.1299905E+00
          1   -1    0    0  501    0  0.00000000000E+00  0.00000000000E+00  0.61721240019E+03  0.61721240021E+03  0.50400000000E-02 0. -1.
         -1   -1    0    0    0  501 -0.00000000000E+00 -0.00000000000E+00 -0.33710119363E+01  0.33710157039E+01  0.50400000000E-02 0.  1.
         23    2    1    2    0    0  0.00000000000E+00  0.00000000000E+00  0.61384138825E+03  0.62058341592E+03  0.91227880469E+02 0.  0.
    9000005    2    3    3    0    0  0.23409678225E+02  0.20385354111E+02  0.53268972216E+03  0.53369746419E+03  0.10538856388E+02 0.  0.
         22    1    3    3    0    0 -0.23409678225E+02 -0.20385354111E+02  0.81151666094E+02  0.86885951722E+02  0.00000000000E+00 0.  1.
         22    1    4    4    0    0  0.20565300689E+02  0.18764292798E+02  0.40012238733E+03  0.40108970957E+03  0.00000000000E+00 0.  1.
         22    1    4    4    0    0  0.28443775357E+01  0.16210613130E+01  0.13256733483E+03  0.13260775462E+03  0.00000000000E+00 0.  1.
<mgrwt>
<rscale>  0 0.91227880E+02</rscale>
<asrwt>0</asrwt>
<pdfrwt beam="1">  1        1 0.94955667E-01 0.91227880E+02</pdfrwt>
<pdfrwt beam="2">  1       -1 0.51861799E-03 0.91227880E+02</pdfrwt>
<totfact> 0.14159470E+05</totfact>
</mgrwt>
</event>
<event>
 7    1  0.3565607E-009  0.8793782E+02  0.7818608E-02  0.1307924E+00
          1   -1    0    0  501    0  0.00000000000E+00  0.00000000000E+00  0.25927663912E+03  0.25927663917E+03  0.50400000000E-02 0. -1.
         -1   -1    0    0    0  501 -0.00000000000E+00 -0.00000000000E+00 -0.74563785984E+01  0.74563803018E+01  0.50400000000E-02 0.  1.
         23    2    1    2    0    0  0.71054273576E-14  0.88817841970E-15  0.25182026052E+03  0.26673301947E+03  0.87937819320E+02 0.  0.
    9000005    2    3    3    0    0 -0.40214218313E+02 -0.49022176465E+01  0.83923801182E+02  0.94018121008E+02  0.12449400812E+02 0.  0.
         22    1    3    3    0    0  0.40214218313E+02  0.49022176465E+01  0.16789645934E+03  0.17271489846E+03  0.00000000000E+00 0. -1.
         22    1    4    4    0    0 -0.10255701648E+01 -0.16825409998E+01  0.92596932205E+00  0.21771902913E+01  0.00000000000E+00 0. -1.
         22    1    4    4    0    0 -0.39188648148E+02 -0.32196766466E+01  0.82997831860E+02  0.91840930717E+02  0.00000000000E+00 0. -1.
<mgrwt>
<rscale>  0 0.87937819E+02</rscale>
<asrwt>0</asrwt>
<pdfrwt beam="1">  1        1 0.39888713E-01 0.87937819E+02</pdfrwt>
<pdfrwt beam="2">  1       -1 0.11471353E-02 0.87937819E+02</pdfrwt>
<totfact> 0.13714779E+05</totfact>
</mgrwt>
</event>
<event>
 7    1  0.3565607E-009  0.9257042E+02  0.7818608E-02  0.1296744E+00
          1   -1    0    0  501    0  0.00000000000E+00  0.00000000000E+00  0.22451331617E+03  0.22451331622E+03  0.50400000000E-02 0. -1.
         -1   -1    0    0    0  501 -0.00000000000E+00 -0.00000000000E+00 -0.95420643233E+01  0.95420656544E+01  0.50400000000E-02 0.  1.
         23    2    1    2    0    0  0.00000000000E+00 -0.44408920985E-15  0.21497125184E+03  0.23405538188E+03  0.92570420042E+02 0.  0.
    9000005    2    3    3    0    0 -0.44115521381E+02  0.26565633542E+01  0.14110225376E+03  0.14797480664E+03  0.57845335236E+01 0.  0.
         22    1    3    3    0    0  0.44115521381E+02 -0.26565633542E+01  0.73868998080E+02  0.86080575236E+02  0.00000000000E+00 0.  1.
         22    1    4    4    0    0 -0.67231465128E+01 -0.10373241889E+01  0.27062945832E+02  0.27904834306E+02  0.00000000000E+00 0.  1.
         22    1    4    4    0    0 -0.37392374868E+02  0.36938875431E+01  0.11403930793E+03  0.12006997233E+03  0.00000000000E+00 0.  1.
<mgrwt>
<rscale>  0 0.92570420E+02</rscale>
<asrwt>0</asrwt>
<pdfrwt beam="1">  1        1 0.34540505E-01 0.92570420E+02</pdfrwt>
<pdfrwt beam="2">  1       -1 0.14680102E-02 0.92570420E+02</pdfrwt>
<totfact> 0.11627712E+05</totfact>
</mgrwt>
</event>
<event>
 7    1  0.3565607E-009  0.9099606E+02  0.7818608E-02  0.1300457E+00
          1   -1    0    0  501    0  0.00000000000E+00  0.00000000000E+00  0.44032256866E+03  0.44032256869E+03  0.50400000000E-02 0. -1.
         -1   -1    0    0    0  501 -0.00000000000E+00 -0.00000000000E+00 -0.47012580942E+01  0.47012607957E+01  0.50400000000E-02 0.  1.
         23    2    1    2    0    0 -0.35527136788E-14  0.00000000000E+00  0.43562131056E+03  0.44502382948E+03  0.90996058101E+02 0.  0.
    9000005    2    3    3    0    0 -0.29635645702E+02 -0.21476471207E+02  0.34785398958E+03  0.34993117496E+03  0.10484218131E+02 0.  0.
         22    1    3    3    0    0  0.29635645702E+02  0.21476471207E+02  0.87767320985E+02  0.95092654524E+02  0.00000000000E+00 0.  1.
         22    1    4    4    0    0 -0.14679211062E+02 -0.10289819187E+02  0.21873346320E+03  0.21946682560E+03  0.00000000000E+00 0. -1.
         22    1    4    4    0    0 -0.14956434639E+02 -0.11186652019E+02  0.12912052638E+03  0.13046434936E+03  0.00000000000E+00 0. -1.
<mgrwt>
<rscale>  0 0.90996058E+02</rscale>
<asrwt>0</asrwt>
<pdfrwt beam="1">  1        1 0.67741947E-01 0.90996058E+02</pdfrwt>
<pdfrwt beam="2">  1       -1 0.72327054E-03 0.90996058E+02</pdfrwt>
<totfact> 0.13764818E+05</totfact>
</mgrwt>
</event>
<event>
 7    1  0.3565607E-009  0.8946457E+02  0.7818608E-02  0.1304154E+00
          1   -1    0    0  501    0  0.00000000000E+00  0.00000000000E+00  0.13527447755E+03  0.13527447765E+03  0.50400000000E-02 0. -1.
         -1   -1    0    0    0  501 -0.00000000000E+00 -0.00000000000E+00 -0.14791980776E+02  0.14791981635E+02  0.50400000000E-02 0.  1.
         23    2    1    2    0    0  0.35527136788E-14  0.35527136788E-14  0.12048249677E+03  0.15006645928E+03  0.89464574955E+02 0.  0.
    9000005    2    3    3    0    0  0.31013429095E+02  0.19155082399E+02  0.22333134604E+02  0.45366663385E+02  0.15186022505E+02 0.  0.
         22    1    3    3    0    0 -0.31013429095E+02 -0.19155082399E+02  0.98149362171E+02  0.10469979590E+03  0.00000000000E+00 0. -1.
         22    1    4    4    0    0  0.14988297137E+02  0.17328616742E+02  0.16421319323E+02  0.28188468166E+02  0.00000000000E+00 0.  1.
         22    1    4    4    0    0  0.16025131958E+02  0.18264656575E+01  0.59118152805E+01  0.17178195219E+02  0.00000000000E+00 0.  1.
<mgrwt>
<rscale>  0 0.89464575E+02</rscale>
<asrwt>0</asrwt>
<pdfrwt beam="1">  1        1 0.20811459E-01 0.89464575E+02</pdfrwt>
<pdfrwt beam="2">  1       -1 0.22756894E-02 0.89464575E+02</pdfrwt>
<totfact> 0.11582431E+05</totfact>
</mgrwt>
</event>
<event>
 7    1  0.3565607E-009  0.1049653E+03  0.7818608E-02  0.1270188E+00
          1   -1    0    0  501    0  0.00000000000E+00  0.00000000000E+00  0.96582642597E+03  0.96582642599E+03  0.50400000000E-02 0. -1.
         -1   -1    0    0    0  501 -0.00000000000E+00 -0.00000000000E+00 -0.28518838783E+01  0.28518883318E+01  0.50400000000E-02 0.  1.
         23    2    1    2    0    0 -0.35527136788E-14  0.00000000000E+00  0.96297454210E+03  0.96867831432E+03  0.10496527001E+03 0.  0.
    9000005    2    3    3    0    0  0.29590243782E+02  0.18106464622E+02  0.84366410132E+03  0.84442692452E+03  0.91808722311E+01 0.  0.
         22    1    3    3    0    0 -0.29590243782E+02 -0.18106464622E+02  0.11931044078E+03  0.12425138980E+03  0.00000000000E+00 0.  1.
         22    1    4    4    0    0  0.29603163663E+02  0.17735544755E+02  0.78133663605E+03  0.78209835423E+03  0.00000000000E+00 0. -1.
         22    1    4    4    0    0 -0.12919880494E-01  0.37091986665E+00  0.62327465264E+02  0.62328570292E+02  0.00000000000E+00 0. -1.
<mgrwt>
<rscale>  0 0.10496527E+03</rscale>
<asrwt>0</asrwt>
<pdfrwt beam="1">  1        1 0.14858847E+00 0.10496527E+03</pdfrwt>
<pdfrwt beam="2">  1       -1 0.43875233E-03 0.10496527E+03</pdfrwt>
<totfact> 0.94318682E+04</totfact>
</mgrwt>
</event>
<event>
 7    1  0.3565607E-009  0.9028267E+02  0.7818608E-02  0.1302169E+00
          1   -1    0    0  501    0  0.00000000000E+00  0.00000000000E+00  0.40912833932E+02  0.40912834243E+02  0.50400000000E-02 0. -1.
         -1   -1    0    0    0  501 -0.00000000000E+00 -0.00000000000E+00 -0.49806863559E+02  0.49806863814E+02  0.50400000000E-02 0.  1.
         23    2    1    2    0    0  0.00000000000E+00  0.00000000000E+00 -0.88940296264E+01  0.90719698056E+02  0.90282666401E+02 0.  0.
    9000005    2    3    3    0    0  0.67029174287E+01 -0.29000254815E+02 -0.38175909610E+02  0.48965987122E+02  0.73704775216E+01 0.  0.
         22    1    3    3    0    0 -0.67029174287E+01  0.29000254815E+02  0.29281879984E+02  0.41753710934E+02  0.00000000000E+00 0. -1.
         22    1    4    4    0    0  0.12704199699E+01 -0.10481475319E+02 -0.19136477560E+02  0.21855893145E+02  0.00000000000E+00 0. -1.
         22    1    4    4    0    0  0.54324974588E+01 -0.18518779496E+02 -0.19039432051E+02  0.27110093978E+02  0.00000000000E+00 0. -1.
<mgrwt>
<rscale>  0 0.90282666E+02</rscale>
<asrwt>0</asrwt>
<pdfrwt beam="1">  1        1 0.62942822E-02 0.90282666E+02</pdfrwt>
<pdfrwt beam="2">  1       -1 0.76625945E-02 0.90282666E+02</pdfrwt>
<totfact> 0.93536066E+04</totfact>
</mgrwt>
</event>
<event>
 7    1  0.3565607E-009  0.9156229E+02  0.7818608E-02  0.1299112E+00
          1   -1    0    0  501    0  0.00000000000E+00  0.00000000000E+00  0.23970695104E+02  0.23970695634E+02  0.50400000000E-02 0. -1.
         -1   -1    0    0    0  501 -0.00000000000E+00 -0.00000000000E+00 -0.87436477152E+02  0.87436477297E+02  0.50400000000E-02 0.  1.
         23    2    1    2    0    0  0.00000000000E+00 -0.35527136788E-14 -0.63465782048E+02  0.11140717293E+03  0.91562288578E+02 0.  0.
    9000005    2    3    3    0    0  0.30787484532E+02  0.30256184601E+02 -0.15088578505E+02  0.46571536642E+02  0.88281885749E+01 0.  0.
         22    1    3    3    0    0 -0.30787484532E+02 -0.30256184601E+02 -0.48377203542E+02  0.64835636289E+02  0.00000000000E+00 0.  1.
         22    1    4    4    0    0  0.26964539134E+02  0.29569601923E+02 -0.12584389759E+02  0.41950144150E+02  0.00000000000E+00 0.  1.
         22    1    4    4    0    0  0.38229453982E+01  0.68658267732E+00 -0.25041887461E+01  0.46213924921E+01  0.00000000000E+00 0.  1.
<mgrwt>
<rscale>  0 0.91562289E+02</rscale>
<asrwt>0</asrwt>
<pdfrwt beam="1">  1        1 0.36877993E-02 0.91562289E+02</pdfrwt>
<pdfrwt beam="2">  1       -1 0.13451766E-01 0.91562289E+02</pdfrwt>
<totfact> 0.82467064E+04</totfact>
</mgrwt>
</event>
<event>
 7    1  0.3565607E-009  0.9214685E+02  0.7818608E-02  0.1297735E+00
          1   -1    0    0  501    0  0.00000000000E+00  0.00000000000E+00  0.40880566935E+03  0.40880566938E+03  0.50400000000E-02 0. -1.
         -1   -1    0    0    0  501 -0.00000000000E+00 -0.00000000000E+00 -0.51925889072E+01  0.51925913532E+01  0.50400000000E-02 0.  1.
         23    2    1    2    0    0  0.17763568394E-14  0.17763568394E-14  0.40361308044E+03  0.41399826073E+03  0.92146845776E+02 0.  0.
    9000005    2    3    3    0    0 -0.13037764310E+02 -0.96062991783E+01  0.39518573354E+03  0.39574218071E+03  0.13335865679E+02 0.  0.
         22    1    3    3    0    0  0.13037764310E+02  0.96062991783E+01  0.84273468976E+01  0.18256080024E+02  0.00000000000E+00 0.  1.
         22    1    4    4    0    0 -0.32826743553E+01 -0.95356507601E+01  0.26482058959E+03  0.26501254547E+03  0.00000000000E+00 0. -1.
         22    1    4    4    0    0 -0.97550899551E+01 -0.70648418116E-01  0.13036514395E+03  0.13072963524E+03  0.00000000000E+00 0. -1.
<mgrwt>
<rscale>  0 0.92146846E+02</rscale>
<asrwt>0</asrwt>
<pdfrwt beam="1">  1        1 0.62893211E-01 0.92146846E+02</pdfrwt>
<pdfrwt beam="2">  1       -1 0.79885963E-03 0.92146846E+02</pdfrwt>
<totfact> 0.13161458E+05</totfact>
</mgrwt>
</event>
<event>
 7    1  0.3565607E-009  0.8946486E+02  0.7818608E-02  0.1304153E+00
         -1   -1    0    0    0  501 -0.00000000000E+00  0.00000000000E+00  0.15406024043E+01  0.15406106484E+01  0.50400000000E-02 0.  1.
          1   -1    0    0  501    0  0.00000000000E+00 -0.00000000000E+00 -0.12988328828E+04  0.12988328828E+04  0.50400000000E-02 0. -1.
         23    2    1    2    0    0  0.00000000000E+00  0.35527136788E-14 -0.12972922804E+04  0.13003734934E+04  0.89464863015E+02 0.  0.
    9000005    2    3    3    0    0 -0.20854521090E+02 -0.21026005524E+02 -0.11353052394E+04  0.11357016822E+04  0.48291285631E+01 0.  0.
         22    1    3    3    0    0  0.20854521090E+02  0.21026005524E+02 -0.16198704097E+03  0.16467181119E+03  0.00000000000E+00 0.  1.
         22    1    4    4    0    0 -0.15246122345E+02 -0.15985626420E+02 -0.91769510011E+03  0.91796093667E+03  0.00000000000E+00 0. -1.
         22    1    4    4    0    0 -0.56083987451E+01 -0.50403791040E+01 -0.21761013929E+03  0.21774074557E+03  0.00000000000E+00 0. -1.
<mgrwt>
<rscale>  0 0.89464863E+02</rscale>
<asrwt>0</asrwt>
<pdfrwt beam="2">  1        1 0.19981957E+00 0.89464863E+02</pdfrwt>
<pdfrwt beam="1">  1       -1 0.23701743E-03 0.89464863E+02</pdfrwt>
<totfact> 0.12840934E+05</totfact>
</mgrwt>
</event>
<event>
 7    1  0.3565607E-009  0.9039393E+02  0.7818608E-02  0.1301901E+00
          1   -1    0    0  501    0  0.00000000000E+00  0.00000000000E+00  0.12701378268E+02  0.12701379268E+02  0.50400000000E-02 0. -1.
         -1   -1    0    0    0  501 -0.00000000000E+00 -0.00000000000E+00 -0.16083024013E+03  0.16083024021E+03  0.50400000000E-02 0.  1.
         23    2    1    2    0    0  0.00000000000E+00  0.22204460493E-15 -0.14812886186E+03  0.17353161948E+03  0.90393933658E+02 0.  0.
    9000005    2    3    3    0    0 -0.31548987965E+02  0.77166697873E+00 -0.13354501266E+02  0.35111742344E+02  0.76522960503E+01 0.  0.
         22    1    3    3    0    0  0.31548987965E+02 -0.77166697873E+00 -0.13477436060E+03  0.13841987713E+03  0.00000000000E+00 0.  1.
         22    1    4    4    0    0 -0.25825812585E+02 -0.21387215896E+01 -0.11961840206E+02  0.28541764957E+02  0.00000000000E+00 0.  1.
         22    1    4    4    0    0 -0.57231753799E+01  0.29103885684E+01 -0.13926610603E+01  0.65699773878E+01  0.00000000000E+00 0.  1.
<mgrwt>
<rscale>  0 0.90393934E+02</rscale>
<asrwt>0</asrwt>
<pdfrwt beam="1">  1        1 0.19540584E-02 0.90393934E+02</pdfrwt>
<pdfrwt beam="2">  1       -1 0.24743113E-01 0.90393934E+02</pdfrwt>
<totfact> 0.75215063E+04</totfact>
</mgrwt>
</event>
<event>
 7    1  0.3565607E-009  0.9475274E+02  0.7818608E-02  0.1291734E+00
          1   -1    0    0  501    0  0.00000000000E+00  0.00000000000E+00  0.17201235340E+02  0.17201236079E+02  0.50400000000E-02 0. -1.
         -1   -1    0    0    0  501 -0.00000000000E+00 -0.00000000000E+00 -0.13048599085E+03  0.13048599095E+03  0.50400000000E-02 0.  1.
         23    2    1    2    0    0  0.35527136788E-14  0.71054273576E-14 -0.11328475551E+03  0.14768722703E+03  0.94752737142E+02 0.  0.
    9000005    2    3    3    0    0  0.24684914058E+02  0.35724365260E+02 -0.28519018365E+02  0.52446450838E+02  0.71916995037E+01 0.  0.
         22    1    3    3    0    0 -0.24684914058E+02 -0.35724365260E+02 -0.84765737145E+02  0.95240776189E+02  0.00000000000E+00 0.  1.
         22    1    4    4    0    0  0.18818231187E+02  0.22772488440E+02 -0.21834313413E+02  0.36734851258E+02  0.00000000000E+00 0.  1.
         22    1    4    4    0    0  0.58666828708E+01  0.12951876819E+02 -0.66847049522E+01  0.15711599580E+02  0.00000000000E+00 0.  1.
<mgrwt>
<rscale>  0 0.94752737E+02</rscale>
<asrwt>0</asrwt>
<pdfrwt beam="1">  1        1 0.26463441E-02 0.94752737E+02</pdfrwt>
<pdfrwt beam="2">  1       -1 0.20074767E-01 0.94752737E+02</pdfrwt>
<totfact> 0.69835485E+04</totfact>
</mgrwt>
</event>
<event>
 7    1  0.3565607E-009  0.9114645E+02  0.7818608E-02  0.1300099E+00
         -1   -1    0    0    0  501 -0.00000000000E+00  0.00000000000E+00  0.48036905400E+02  0.48036905664E+02  0.50400000000E-02 0.  1.
          1   -1    0    0  501    0  0.00000000000E+00 -0.00000000000E+00 -0.43235903093E+02  0.43235903387E+02  0.50400000000E-02 0. -1.
         23    2    1    2    0    0  0.00000000000E+00  0.00000000000E+00  0.48010023068E+01  0.91272809051E+02  0.91146453848E+02 0.  0.
    9000005    2    3    3    0    0  0.38785322076E+02 -0.22543115516E+02 -0.52947289148E+01  0.45290018199E+02  0.32647095610E+01 0.  0.
         22    1    3    3    0    0 -0.38785322076E+02  0.22543115516E+02  0.10095731222E+02  0.45982790852E+02  0.00000000000E+00 0. -1.
         22    1    4    4    0    0  0.42359319430E+01 -0.33936367823E+01  0.54997945061E-01  0.54279752035E+01  0.00000000000E+00 0. -1.
         22    1    4    4    0    0  0.34549390133E+02 -0.19149478734E+02 -0.53497268598E+01  0.39862042996E+02  0.00000000000E+00 0. -1.
<mgrwt>
<rscale>  0 0.91146454E+02</rscale>
<asrwt>0</asrwt>
<pdfrwt beam="2">  1        1 0.66516774E-02 0.91146454E+02</pdfrwt>
<pdfrwt beam="1">  1       -1 0.73902932E-02 0.91146454E+02</pdfrwt>
<totfact> 0.91823662E+04</totfact>
</mgrwt>
</event>
<event>
 7    1  0.3565607E-009  0.9094232E+02  0.7818608E-02  0.1300586E+00
          1   -1    0    0  501    0  0.00000000000E+00  0.00000000000E+00  0.29822015163E+03  0.29822015167E+03  0.50400000000E-02 0. -1.
         -1   -1    0    0    0  501 -0.00000000000E+00 -0.00000000000E+00 -0.69332210838E+01  0.69332229157E+01  0.50400000000E-02 0.  1.
         23    2    1    2    0    0  0.00000000000E+00  0.00000000000E+00  0.29128693054E+03  0.30515337459E+03  0.90942323016E+02 0.  0.
    9000005    2    3    3    0    0 -0.26582424715E+01  0.19094880631E+02  0.28374182163E+03  0.28445049102E+03  0.55659485760E+01 0.  0.
         22    1    3    3    0    0  0.26582424715E+01 -0.19094880631E+02  0.75451089198E+01  0.20702883566E+02  0.00000000000E+00 0.  1.
         22    1    4    4    0    0  0.88450617116E+00  0.38395768306E+01  0.85629478198E+02  0.85720080715E+02  0.00000000000E+00 0.  1.
         22    1    4    4    0    0 -0.35427486427E+01  0.15255303800E+02  0.19811234343E+03  0.19873041031E+03  0.00000000000E+00 0.  1.
<mgrwt>
<rscale>  0 0.90942323E+02</rscale>
<asrwt>0</asrwt>
<pdfrwt beam="1">  1        1 0.45880015E-01 0.90942323E+02</pdfrwt>
<pdfrwt beam="2">  1       -1 0.10666497E-02 0.90942323E+02</pdfrwt>
<totfact> 0.12885784E+05</totfact>
</mgrwt>
</event>
<event>
 7    1  0.3565607E-009  0.8846361E+02  0.7818608E-02  0.1306616E+00
          1   -1    0    0  501    0  0.00000000000E+00  0.00000000000E+00  0.27447359073E+03  0.27447359078E+03  0.50400000000E-02 0. -1.
         -1   -1    0    0    0  501 -0.00000000000E+00 -0.00000000000E+00 -0.71280159091E+01  0.71280176909E+01  0.50400000000E-02 0.  1.
         23    2    1    2    0    0  0.88817841970E-15  0.35527136788E-14  0.26734557482E+03  0.28160160847E+03  0.88463605596E+02 0.  0.
    9000005    2    3    3    0    0 -0.66595874324E+01 -0.27220295248E+02  0.24126977200E+03  0.24332312795E+03  0.14482649465E+02 0.  0.
         22    1    3    3    0    0  0.66595874324E+01  0.27220295248E+02  0.26075802824E+02  0.38278480522E+02  0.00000000000E+00 0.  1.
         22    1    4    4    0    0 -0.14631517038E+01 -0.10427430192E+02  0.42791844723E+02  0.44068288918E+02  0.00000000000E+00 0. -1.
         22    1    4    4    0    0 -0.51964357287E+01 -0.16792865055E+02  0.19847792727E+03  0.19925483903E+03  0.00000000000E+00 0. -1.
<mgrwt>
<rscale>  0 0.88463606E+02</rscale>
<asrwt>0</asrwt>
<pdfrwt beam="1">  1        1 0.42226716E-01 0.88463606E+02</pdfrwt>
<pdfrwt beam="2">  1       -1 0.10966177E-02 0.88463606E+02</pdfrwt>
<totfact> 0.13649177E+05</totfact>
</mgrwt>
</event>
<event>
 7    1  0.3565607E-009  0.9116799E+02  0.7818608E-02  0.1300048E+00
          1   -1    0    0  501    0  0.00000000000E+00  0.00000000000E+00  0.11641853704E+02  0.11641854795E+02  0.50400000000E-02 0. -1.
         -1   -1    0    0    0  501 -0.00000000000E+00 -0.00000000000E+00 -0.17848535070E+03  0.17848535077E+03  0.50400000000E-02 0.  1.
         23    2    1    2    0    0 -0.35527136788E-14  0.00000000000E+00 -0.16684349700E+03  0.19012720557E+03  0.91167986740E+02 0.  0.
    9000005    2    3    3    0    0 -0.27113274685E+02 -0.19577014615E+02 -0.25660851436E+02  0.45037824242E+02  0.15859922784E+02 0.  0.
         22    1    3    3    0    0  0.27113274685E+02  0.19577014615E+02 -0.14118264556E+03  0.14508938132E+03  0.00000000000E+00 0.  1.
         22    1    4    4    0    0 -0.26459759391E+01  0.82615388841E+00  0.15189707697E+01  0.31608529097E+01  0.00000000000E+00 0. -1.
         22    1    4    4    0    0 -0.24467298745E+02 -0.20403168503E+02 -0.27179822205E+02  0.41876971333E+02  0.00000000000E+00 0. -1.
<mgrwt>
<rscale>  0 0.91167987E+02</rscale>
<asrwt>0</asrwt>
<pdfrwt beam="1">  1        1 0.17910546E-02 0.91167987E+02</pdfrwt>
<pdfrwt beam="2">  1       -1 0.27459283E-01 0.91167987E+02</pdfrwt>
<totfact> 0.71647408E+04</totfact>
</mgrwt>
</event>
<event>
 7    1  0.3565607E-009  0.8519120E+02  0.7818608E-02  0.1314933E+00
          1   -1    0    0  501    0  0.00000000000E+00  0.00000000000E+00  0.35580981753E+03  0.35580981757E+03  0.50400000000E-02 0. -1.
         -1   -1    0    0    0  501 -0.00000000000E+00 -0.00000000000E+00 -0.50993102885E+01  0.50993127792E+01  0.50400000000E-02 0.  1.
         23    2    1    2    0    0  0.00000000000E+00  0.00000000000E+00  0.35071050724E+03  0.36090913035E+03  0.85191199526E+02 0.  0.
    9000005    2    3    3    0    0 -0.47112786055E+01 -0.39979266441E+02  0.13251306487E+03  0.13902929406E+03  0.12202227459E+02 0.  0.
         22    1    3    3    0    0  0.47112786055E+01  0.39979266441E+02  0.21819744237E+03  0.22187983628E+03  0.00000000000E+00 0. -1.
         22    1    4    4    0    0 -0.75884986694E+01 -0.14051651061E+02  0.49003541307E+02  0.51540093813E+02  0.00000000000E+00 0.  1.
         22    1    4    4    0    0  0.28772200639E+01 -0.25927615381E+02  0.83509523565E+02  0.87489200252E+02  0.00000000000E+00 0.  1.
<mgrwt>
<rscale>  0 0.85191200E+02</rscale>
<asrwt>0</asrwt>
<pdfrwt beam="1">  1        1 0.54739978E-01 0.85191200E+02</pdfrwt>
<pdfrwt beam="2">  1       -1 0.78450939E-03 0.85191200E+02</pdfrwt>
<totfact> 0.15826882E+05</totfact>
</mgrwt>
</event>
<event>
 7    1  0.3565607E-009  0.9225207E+02  0.7818608E-02  0.1297488E+00
         -1   -1    0    0    0  501 -0.00000000000E+00  0.00000000000E+00  0.10490402121E+03  0.10490402133E+03  0.50400000000E-02 0.  1.
          1   -1    0    0  501    0  0.00000000000E+00 -0.00000000000E+00 -0.20281501400E+02  0.20281502026E+02  0.50400000000E-02 0. -1.
         23    2    1    2    0    0 -0.17763568394E-14  0.00000000000E+00  0.84622519812E+02  0.12518552336E+03  0.92252069891E+02 0.  0.
    9000005    2    3    3    0    0  0.14371265886E+02 -0.41086384779E+02  0.61146980823E+02  0.75731249244E+02  0.10081892229E+02 0.  0.
         22    1    3    3    0    0 -0.14371265886E+02  0.41086384779E+02  0.23475538989E+02  0.49454274114E+02  0.00000000000E+00 0. -1.
         22    1    4    4    0    0  0.10855182664E+02 -0.24997041333E+02  0.45363718800E+02  0.52920261237E+02  0.00000000000E+00 0. -1.
         22    1    4    4    0    0  0.35160832224E+01 -0.16089343446E+02  0.15783262023E+02  0.22810988007E+02  0.00000000000E+00 0. -1.
<mgrwt>
<rscale>  0 0.92252070E+02</rscale>
<asrwt>0</asrwt>
<pdfrwt beam="2">  1        1 0.31202311E-02 0.92252070E+02</pdfrwt>
<pdfrwt beam="1">  1       -1 0.16139080E-01 0.92252070E+02</pdfrwt>
<totfact> 0.78237253E+04</totfact>
</mgrwt>
</event>
<event>
 7    1  0.3565607E-009  0.9072896E+02  0.7818608E-02  0.1301096E+00
         -1   -1    0    0    0  501 -0.00000000000E+00  0.00000000000E+00  0.28499860721E+01  0.28499905285E+01  0.50400000000E-02 0.  1.
          1   -1    0    0  501    0  0.00000000000E+00 -0.00000000000E+00 -0.72208580453E+03  0.72208580455E+03  0.50400000000E-02 0. -1.
         23    2    1    2    0    0  0.00000000000E+00  0.00000000000E+00 -0.71923581846E+03  0.72493579508E+03  0.90728961362E+02 0.  0.
    9000005    2    3    3    0    0  0.23332920712E+02 -0.13641922288E+02 -0.65046209947E+03  0.65104160277E+03  0.48681066098E+01 0.  0.
         22    1    3    3    0    0 -0.23332920712E+02  0.13641922288E+02 -0.68773718988E+02  0.73894192303E+02  0.00000000000E+00 0. -1.
         22    1    4    4    0    0  0.83908710609E+01 -0.49282550772E+01 -0.18158214796E+03  0.18184270916E+03  0.00000000000E+00 0. -1.
         22    1    4    4    0    0  0.14942049651E+02 -0.87136672110E+01 -0.46887995150E+03  0.46919889361E+03  0.00000000000E+00 0. -1.
<mgrwt>
<rscale>  0 0.90728961E+02</rscale>
<asrwt>0</asrwt>
<pdfrwt beam="2">  1        1 0.11108998E+00 0.90728961E+02</pdfrwt>
<pdfrwt beam="1">  1       -1 0.43846031E-03 0.90728961E+02</pdfrwt>
<totfact> 0.14396149E+05</totfact>
</mgrwt>
</event>
<event>
 7    1  0.3565607E-009  0.9830461E+02  0.7818608E-02  0.1283902E+00
         -1   -1    0    0    0  501 -0.00000000000E+00  0.00000000000E+00  0.18927454365E+02  0.18927455037E+02  0.50400000000E-02 0.  1.
          1   -1    0    0  501    0  0.00000000000E+00 -0.00000000000E+00 -0.12764257192E+03  0.12764257202E+03  0.50400000000E-02 0. -1.
         23    2    1    2    0    0  0.35527136788E-14 -0.88817841970E-15 -0.10871511756E+03  0.14657002706E+03  0.98304608470E+02 0.  0.
    9000005    2    3    3    0    0  0.19894870259E+02 -0.63690793459E+01 -0.12002497423E+03  0.12281536663E+03  0.15532186179E+02 0.  0.
         22    1    3    3    0    0 -0.19894870259E+02  0.63690793459E+01  0.11309856669E+02  0.23754660431E+02  0.00000000000E+00 0.  1.
         22    1    4    4    0    0  0.32834038903E+01 -0.76511856126E+01 -0.25255498325E+02  0.26592509811E+02  0.00000000000E+00 0.  1.
         22    1    4    4    0    0  0.16611466368E+02  0.12821062667E+01 -0.94769475901E+02  0.96222856816E+02  0.00000000000E+00 0.  1.
<mgrwt>
<rscale>  0 0.98304608E+02</rscale>
<asrwt>0</asrwt>
<pdfrwt beam="2">  1        1 0.19637318E-01 0.98304608E+02</pdfrwt>
<pdfrwt beam="1">  1       -1 0.29119162E-02 0.98304608E+02</pdfrwt>
<totfact> 0.88733731E+04</totfact>
</mgrwt>
</event>
<event>
 7    1  0.3565607E-009  0.9043392E+02  0.7818608E-02  0.1301804E+00
          1   -1    0    0  501    0  0.00000000000E+00  0.00000000000E+00  0.16027025095E+03  0.16027025103E+03  0.50400000000E-02 0. -1.
         -1   -1    0    0    0  501 -0.00000000000E+00 -0.00000000000E+00 -0.12757037088E+02  0.12757038084E+02  0.50400000000E-02 0.  1.
         23    2    1    2    0    0  0.00000000000E+00  0.00000000000E+00  0.14751321387E+03  0.17302728912E+03  0.90433923469E+02 0.  0.
    9000005    2    3    3    0    0 -0.43348497124E+02  0.69360261498E+01  0.91005580443E+02  0.10147092464E+03  0.93344638052E+01 0.  0.
         22    1    3    3    0    0  0.43348497124E+02 -0.69360261498E+01  0.56507633424E+02  0.71556364474E+02  0.00000000000E+00 0.  1.
         22    1    4    4    0    0 -0.24359473831E+02  0.96345500000E+00  0.58181091854E+02  0.63082102534E+02  0.00000000000E+00 0. -1.
         22    1    4    4    0    0 -0.18989023293E+02  0.59725711498E+01  0.32824488589E+02  0.38388822109E+02  0.00000000000E+00 0. -1.
<mgrwt>
<rscale>  0 0.90433923E+02</rscale>
<asrwt>0</asrwt>
<pdfrwt beam="1">  1        1 0.24656961E-01 0.90433923E+02</pdfrwt>
<pdfrwt beam="2">  1       -1 0.19626212E-02 0.90433923E+02</pdfrwt>
<totfact> 0.11604253E+05</totfact>
</mgrwt>
</event>
<event>
 7    1  0.3565607E-009  0.9117379E+02  0.7818608E-02  0.1300034E+00
         -1   -1    0    0    0  501 -0.00000000000E+00  0.00000000000E+00  0.28217292637E+01  0.28217337648E+01  0.50400000000E-02 0.  1.
          1   -1    0    0  501    0  0.00000000000E+00 -0.00000000000E+00 -0.73648569857E+03  0.73648569859E+03  0.50400000000E-02 0. -1.
         23    2    1    2    0    0  0.35527136788E-14  0.00000000000E+00 -0.73366396931E+03  0.73930743235E+03  0.91173788298E+02 0.  0.
    9000005    2    3    3    0    0  0.17392646524E+02 -0.29461854157E+01 -0.70707337863E+03  0.70739750170E+03  0.12135834729E+02 0.  0.
         22    1    3    3    0    0 -0.17392646524E+02  0.29461854157E+01 -0.26590590677E+02  0.31909930651E+02  0.00000000000E+00 0.  1.
         22    1    4    4    0    0  0.44077074955E+01 -0.12122601681E+01 -0.42050564222E+03  0.42053048950E+03  0.00000000000E+00 0.  1.
         22    1    4    4    0    0  0.12984939029E+02 -0.17339252475E+01 -0.28656773641E+03  0.28686701220E+03  0.00000000000E+00 0.  1.
<mgrwt>
<rscale>  0 0.91173788E+02</rscale>
<asrwt>0</asrwt>
<pdfrwt beam="2">  1        1 0.11330534E+00 0.91173788E+02</pdfrwt>
<pdfrwt beam="1">  1       -1 0.43411313E-03 0.91173788E+02</pdfrwt>
<totfact> 0.14202598E+05</totfact>
</mgrwt>
</event>
<event>
 7    1  0.3565607E-009  0.9333756E+02  0.7818608E-02  0.1294965E+00
          1   -1    0    0  501    0  0.00000000000E+00  0.00000000000E+00  0.74567376839E+02  0.74567377009E+02  0.50400000000E-02 0. -1.
         -1   -1    0    0    0  501 -0.00000000000E+00 -0.00000000000E+00 -0.29208148681E+02  0.29208149116E+02  0.50400000000E-02 0.  1.
         23    2    1    2    0    0  0.35527136788E-14  0.00000000000E+00  0.45359228157E+02  0.10377552613E+03  0.93337560733E+02 0.  0.
    9000005    2    3    3    0    0 -0.26079039321E+02  0.35327593757E+02  0.10403508328E+02  0.47650152885E+02  0.15301925102E+02 0.  0.
         22    1    3    3    0    0  0.26079039321E+02 -0.35327593757E+02  0.34955719829E+02  0.56125373240E+02  0.00000000000E+00 0. -1.
         22    1    4    4    0    0 -0.23981104560E+02  0.36361755016E+02  0.79810952064E+01  0.44282823809E+02  0.00000000000E+00 0.  1.
         22    1    4    4    0    0 -0.20979347612E+01 -0.10341612593E+01  0.24224131217E+01  0.33673290758E+01  0.00000000000E+00 0.  1.
<mgrwt>
<rscale>  0 0.93337561E+02</rscale>
<asrwt>0</asrwt>
<pdfrwt beam="1">  1        1 0.11471904E-01 0.93337561E+02</pdfrwt>
<pdfrwt beam="2">  1       -1 0.44935614E-02 0.93337561E+02</pdfrwt>
<totfact> 0.93404491E+04</totfact>
</mgrwt>
</event>
<event>
 7    1  0.3565607E-009  0.9207031E+02  0.7818608E-02  0.1297914E+00
          1   -1    0    0  501    0  0.00000000000E+00  0.00000000000E+00  0.78365482524E+02  0.78365482687E+02  0.50400000000E-02 0. -1.
         -1   -1    0    0    0  501 -0.00000000000E+00 -0.00000000000E+00 -0.27042970661E+02  0.27042971130E+02  0.50400000000E-02 0.  1.
         23    2    1    2    0    0  0.00000000000E+00  0.71054273576E-14  0.51322511864E+02  0.10540845382E+03  0.92070309612E+02 0.  0.
    9000005    2    3    3    0    0  0.11316411212E+02 -0.44400823766E+02  0.25013810977E+02  0.52572461764E+02  0.62192188109E+01 0.  0.
         22    1    3    3    0    0 -0.11316411212E+02  0.44400823766E+02  0.26308700887E+02  0.52835992052E+02  0.00000000000E+00 0.  1.
         22    1    4    4    0    0  0.21926152581E+01 -0.27259373213E+01  0.11100635397E+01  0.36702230194E+01  0.00000000000E+00 0. -1.
         22    1    4    4    0    0  0.91237959534E+01 -0.41674886444E+02  0.23903747437E+02  0.48902238745E+02  0.00000000000E+00 0. -1.
<mgrwt>
<rscale>  0 0.92070310E+02</rscale>
<asrwt>0</asrwt>
<pdfrwt beam="1">  1        1 0.12056228E-01 0.92070310E+02</pdfrwt>
<pdfrwt beam="2">  1       -1 0.41604571E-02 0.92070310E+02</pdfrwt>
<totfact> 0.97758915E+04</totfact>
</mgrwt>
</event>
<event>
 7    1  0.3565607E-009  0.9314814E+02  0.7818608E-02  0.1295402E+00
          1   -1    0    0  501    0  0.00000000000E+00  0.00000000000E+00  0.68682722757E+02  0.68682722942E+02  0.50400000000E-02 0.  1.
         -1   -1    0    0    0  501 -0.00000000000E+00 -0.00000000000E+00 -0.31582089692E+02  0.31582090094E+02  0.50400000000E-02 0. -1.
         23    2    1    2    0    0 -0.71054273576E-14 -0.35527136788E-14  0.37100633066E+02  0.10026481304E+03  0.93148138786E+02 0.  0.
    9000005    2    3    3    0    0 -0.36894661098E+02 -0.28053105175E+02  0.14853963593E+02  0.48853656367E+02  0.42245447717E+01 0.  0.
         22    1    3    3    0    0  0.36894661098E+02  0.28053105175E+02  0.22246669473E+02  0.51411156670E+02  0.00000000000E+00 0.  1.
         22    1    4    4    0    0 -0.27396634010E+01 -0.27285381971E+01  0.17071291545E+00  0.38703771319E+01  0.00000000000E+00 0. -1.
         22    1    4    4    0    0 -0.34154997697E+02 -0.25324566978E+02  0.14683250677E+02  0.44983279235E+02  0.00000000000E+00 0. -1.
<mgrwt>
<rscale>  0 0.93148139E+02</rscale>
<asrwt>0</asrwt>
<pdfrwt beam="1">  1        1 0.10566573E-01 0.93148139E+02</pdfrwt>
<pdfrwt beam="2">  1       -1 0.48587831E-02 0.93148139E+02</pdfrwt>
<totfact> 0.92725538E+04</totfact>
</mgrwt>
</event>
<event>
 7    1  0.3565607E-009  0.9048741E+02  0.7818608E-02  0.1301676E+00
         -1   -1    0    0    0  501 -0.00000000000E+00  0.00000000000E+00  0.68871045018E+01  0.68871063459E+01  0.50400000000E-02 0.  1.
          1   -1    0    0  501    0  0.00000000000E+00 -0.00000000000E+00 -0.29722106541E+03  0.29722106545E+03  0.50400000000E-02 0. -1.
         23    2    1    2    0    0  0.00000000000E+00  0.00000000000E+00 -0.29033396091E+03  0.30410817180E+03  0.90487409611E+02 0.  0.
    9000005    2    3    3    0    0 -0.36125414368E+02 -0.23133681062E+02 -0.97206663861E+02  0.10627398459E+03  0.21935221533E+01 0.  0.
         22    1    3    3    0    0  0.36125414368E+02  0.23133681062E+02 -0.19312729705E+03  0.19783418721E+03  0.00000000000E+00 0. -1.
         22    1    4    4    0    0 -0.79862457109E+01 -0.54164610273E+01 -0.24106461614E+02  0.25966125282E+02  0.00000000000E+00 0. -1.
         22    1    4    4    0    0 -0.28139168657E+02 -0.17717220035E+02 -0.73100202246E+02  0.80307859310E+02  0.00000000000E+00 0. -1.
<mgrwt>
<rscale>  0 0.90487410E+02</rscale>
<asrwt>0</asrwt>
<pdfrwt beam="2">  1        1 0.45726308E-01 0.90487410E+02</pdfrwt>
<pdfrwt beam="1">  1       -1 0.10595549E-02 0.90487410E+02</pdfrwt>
<totfact> 0.13050570E+05</totfact>
</mgrwt>
</event>
<event>
 7    1  0.3565607E-009  0.9352463E+02  0.7818608E-02  0.1294534E+00
          1   -1    0    0  501    0  0.00000000000E+00  0.00000000000E+00  0.45634889865E+02  0.45634890143E+02  0.50400000000E-02 0. -1.
         -1   -1    0    0    0  501 -0.00000000000E+00 -0.00000000000E+00 -0.47917593174E+02  0.47917593439E+02  0.50400000000E-02 0.  1.
         23    2    1    2    0    0  0.17763568394E-14  0.00000000000E+00 -0.22827033091E+01  0.93552483583E+02  0.93524630179E+02 0.  0.
    9000005    2    3    3    0    0  0.12803249324E+02 -0.83681290371E+01  0.42252299959E+02  0.46464106111E+02  0.11819793908E+02 0.  0.
         22    1    3    3    0    0 -0.12803249324E+02  0.83681290371E+01 -0.44535003268E+02  0.47088377472E+02  0.00000000000E+00 0.  1.
         22    1    4    4    0    0  0.96130230627E+01 -0.66664956757E+00  0.13912520367E+02  0.16923736497E+02  0.00000000000E+00 0. -1.
         22    1    4    4    0    0  0.31902262618E+01 -0.77014794695E+01  0.28339779592E+02  0.29540369614E+02  0.00000000000E+00 0. -1.
<mgrwt>
<rscale>  0 0.93524630E+02</rscale>
<asrwt>0</asrwt>
<pdfrwt beam="1">  1        1 0.70207524E-02 0.93524630E+02</pdfrwt>
<pdfrwt beam="2">  1       -1 0.73719374E-02 0.93524630E+02</pdfrwt>
<totfact> 0.86098037E+04</totfact>
</mgrwt>
</event>
<event>
 7    1  0.3565607E-009  0.8733142E+02  0.7818608E-02  0.1309446E+00
          1   -1    0    0  501    0  0.00000000000E+00  0.00000000000E+00  0.87920814405E+01  0.87920828851E+01  0.50400000000E-02 0. -1.
         -1   -1    0    0    0  501 -0.00000000000E+00 -0.00000000000E+00 -0.21686489980E+03  0.21686489986E+03  0.50400000000E-02 0.  1.
         23    2    1    2    0    0  0.00000000000E+00  0.00000000000E+00 -0.20807281836E+03  0.22565698275E+03  0.87331415430E+02 0.  0.
    9000005    2    3    3    0    0  0.27318186161E+01 -0.42621295700E+02 -0.11556571387E+03  0.12376683572E+03  0.11779546722E+02 0.  0.
         22    1    3    3    0    0 -0.27318186161E+01  0.42621295700E+02 -0.92507104490E+02  0.10189014703E+03  0.00000000000E+00 0. -1.
         22    1    4    4    0    0  0.15270091847E+01 -0.39165218947E+02 -0.11198693643E+03  0.11864788267E+03  0.00000000000E+00 0.  1.
         22    1    4    4    0    0  0.12048094314E+01 -0.34560767535E+01 -0.35787774432E+01  0.51189530453E+01  0.00000000000E+00 0.  1.
<mgrwt>
<rscale>  0 0.87331415E+02</rscale>
<asrwt>0</asrwt>
<pdfrwt beam="1">  1        1 0.13526282E-02 0.87331415E+02</pdfrwt>
<pdfrwt beam="2">  1       -1 0.33363827E-01 0.87331415E+02</pdfrwt>
<totfact> 0.75832288E+04</totfact>
</mgrwt>
</event>
<event>
 7    1  0.3565607E-009  0.9222055E+02  0.7818608E-02  0.1297562E+00
          1   -1    0    0  501    0  0.00000000000E+00  0.00000000000E+00  0.48529597797E+02  0.48529598059E+02  0.50400000000E-02 0. -1.
         -1   -1    0    0    0  501 -0.00000000000E+00 -0.00000000000E+00 -0.43811557399E+02  0.43811557689E+02  0.50400000000E-02 0.  1.
         23    2    1    2    0    0  0.00000000000E+00  0.00000000000E+00  0.47180403980E+01  0.92341155748E+02  0.92220546191E+02 0.  0.
    9000005    2    3    3    0    0  0.35486801796E+02  0.43999227248E+01  0.29410830342E+02  0.48885358702E+02  0.15687859392E+02 0.  0.
         22    1    3    3    0    0 -0.35486801796E+02 -0.43999227248E+01 -0.24692789944E+02  0.43455797046E+02  0.00000000000E+00 0.  1.
         22    1    4    4    0    0  0.36791874541E+02  0.35663610113E+01  0.26160595552E+02  0.45285071742E+02  0.00000000000E+00 0.  1.
         22    1    4    4    0    0 -0.13050727445E+01  0.83356171357E+00  0.32502347902E+01  0.36002869595E+01  0.00000000000E+00 0.  1.
<mgrwt>
<rscale>  0 0.92220546E+02</rscale>
<asrwt>0</asrwt>
<pdfrwt beam="1">  1        1 0.74660920E-02 0.92220546E+02</pdfrwt>
<pdfrwt beam="2">  1       -1 0.67402397E-02 0.92220546E+02</pdfrwt>
<totfact> 0.90412440E+04</totfact>
</mgrwt>
</event>
<event>
 7    1  0.3565607E-009  0.9348165E+02  0.7818608E-02  0.1294633E+00
         -1   -1    0    0    0  501 -0.00000000000E+00  0.00000000000E+00  0.29378014794E+03  0.29378014798E+03  0.50400000000E-02 0.  1.
          1   -1    0    0  501    0  0.00000000000E+00 -0.00000000000E+00 -0.74365291112E+01  0.74365308191E+01  0.50400000000E-02 0. -1.
         23    2    1    2    0    0 -0.35527136788E-14 -0.71054273576E-14  0.28634361883E+03  0.30121667880E+03  0.93481653520E+02 0.  0.
    9000005    2    3    3    0    0  0.26637431775E+02  0.34512328649E+02  0.96250684458E+02  0.10618853392E+03  0.10543096137E+02 0.  0.
         22    1    3    3    0    0 -0.26637431775E+02 -0.34512328649E+02  0.19009293437E+03  0.19502814489E+03  0.00000000000E+00 0. -1.
         22    1    4    4    0    0  0.32065751990E+01  0.66717011769E+00  0.11697380161E+02  0.12147260724E+02  0.00000000000E+00 0.  1.
         22    1    4    4    0    0  0.23430856576E+02  0.33845158531E+02  0.84553304297E+02  0.94041273191E+02  0.00000000000E+00 0.  1.
<mgrwt>
<rscale>  0 0.93481654E+02</rscale>
<asrwt>0</asrwt>
<pdfrwt beam="2">  1        1 0.11440815E-02 0.93481654E+02</pdfrwt>
<pdfrwt beam="1">  1       -1 0.45196947E-01 0.93481654E+02</pdfrwt>
<totfact> 0.57218307E+04</totfact>
</mgrwt>
</event>
<event>
 7    1  0.3565607E-009  0.8598454E+02  0.7818608E-02  0.1312878E+00
         -1   -1    0    0    0  501 -0.00000000000E+00  0.00000000000E+00  0.37483526086E+02  0.37483526425E+02  0.50400000000E-02 0.  1.
          1   -1    0    0  501    0  0.00000000000E+00 -0.00000000000E+00 -0.49310598075E+02  0.49310598333E+02  0.50400000000E-02 0. -1.
         23    2    1    2    0    0  0.00000000000E+00  0.00000000000E+00 -0.11827071989E+02  0.86794124757E+02  0.85984536171E+02 0.  0.
    9000005    2    3    3    0    0  0.35411951041E+02 -0.52957381804E+01  0.16483865908E+02  0.41148091807E+02  0.11806629691E+02 0.  0.
         22    1    3    3    0    0 -0.35411951041E+02  0.52957381804E+01 -0.28310937898E+02  0.45646032950E+02  0.00000000000E+00 0. -1.
         22    1    4    4    0    0  0.34854674303E+02 -0.34457723573E+01  0.17283719945E+02  0.39056992242E+02  0.00000000000E+00 0. -1.
         22    1    4    4    0    0  0.55727673861E+00 -0.18499658231E+01 -0.79985403647E+00  0.20910995647E+01  0.00000000000E+00 0. -1.
<mgrwt>
<rscale>  0 0.85984536E+02</rscale>
<asrwt>0</asrwt>
<pdfrwt beam="2">  1        1 0.75862459E-02 0.85984536E+02</pdfrwt>
<pdfrwt beam="1">  1       -1 0.57666964E-02 0.85984536E+02</pdfrwt>
<totfact> 0.11014361E+05</totfact>
</mgrwt>
</event>
<event>
 7    1  0.3565607E-009  0.9376240E+02  0.7818608E-02  0.1293988E+00
         -1   -1    0    0    0  501 -0.00000000000E+00  0.00000000000E+00  0.95910328082E+02  0.95910328215E+02  0.50400000000E-02 0.  1.
          1   -1    0    0  501    0  0.00000000000E+00 -0.00000000000E+00 -0.22915641247E+02  0.22915641802E+02  0.50400000000E-02 0. -1.
         23    2    1    2    0    0  0.00000000000E+00  0.35527136788E-14  0.72994686835E+02  0.11882597002E+03  0.93762395683E+02 0.  0.
    9000005    2    3    3    0    0  0.20816721556E+02 -0.29175190884E+02  0.73280320575E+02  0.82984524090E+02  0.15228203948E+02 0.  0.
         22    1    3    3    0    0 -0.20816721556E+02  0.29175190884E+02 -0.28563374047E+00  0.35841445926E+02  0.00000000000E+00 0. -1.
         22    1    4    4    0    0  0.11872106738E+02 -0.13404590667E+02  0.52168578299E+02  0.55156056160E+02  0.00000000000E+00 0. -1.
         22    1    4    4    0    0  0.89446148175E+01 -0.15770600217E+02  0.21111742276E+02  0.27828467931E+02  0.00000000000E+00 0. -1.
<mgrwt>
<rscale>  0 0.93762396E+02</rscale>
<asrwt>0</asrwt>
<pdfrwt beam="2">  1        1 0.35254833E-02 0.93762396E+02</pdfrwt>
<pdfrwt beam="1">  1       -1 0.14755435E-01 0.93762396E+02</pdfrwt>
<totfact> 0.76299835E+04</totfact>
</mgrwt>
</event>
<event>
 7    1  0.3565607E-009  0.9060601E+02  0.7818608E-02  0.1301391E+00
          1   -1    0    0  501    0  0.00000000000E+00  0.00000000000E+00  0.11677111328E+04  0.11677111328E+04  0.50400000000E-02 0. -1.
         -1   -1    0    0    0  501 -0.00000000000E+00 -0.00000000000E+00 -0.17575906652E+01  0.17575978914E+01  0.50400000000E-02 0.  1.
         23    2    1    2    0    0 -0.35527136788E-14  0.88817841970E-15  0.11659535422E+04  0.11694687307E+04  0.90606013453E+02 0.  0.
    9000005    2    3    3    0    0 -0.28703415562E+02  0.69332328885E+01  0.10203872991E+04  0.10209376333E+04  0.15857337339E+02 0.  0.
         22    1    3    3    0    0  0.28703415562E+02 -0.69332328885E+01  0.14556624303E+03  0.14853109740E+03  0.00000000000E+00 0.  1.
         22    1    4    4    0    0 -0.93415454833E+00 -0.84087855263E-01  0.27313196724E+03  0.27313357765E+03  0.00000000000E+00 0. -1.
         22    1    4    4    0    0 -0.27769261014E+02  0.70173207437E+01  0.74725533189E+03  0.74780405567E+03  0.00000000000E+00 0. -1.
<mgrwt>
<rscale>  0 0.90606013E+02</rscale>
<asrwt>0</asrwt>
<pdfrwt beam="1">  1        1 0.17964824E+00 0.90606013E+02</pdfrwt>
<pdfrwt beam="2">  1       -1 0.27039856E-03 0.90606013E+02</pdfrwt>
<totfact> 0.13104226E+05</totfact>
</mgrwt>
</event>
<event>
 7    1  0.3565607E-009  0.8916554E+02  0.7818608E-02  0.1304885E+00
          1   -1    0    0  501    0  0.00000000000E+00  0.00000000000E+00  0.65763816779E+02  0.65763816972E+02  0.50400000000E-02 0. -1.
         -1   -1    0    0    0  501 -0.00000000000E+00 -0.00000000000E+00 -0.30223662351E+02  0.30223662772E+02  0.50400000000E-02 0.  1.
         23    2    1    2    0    0  0.00000000000E+00  0.00000000000E+00  0.35540154427E+02  0.95987479743E+02  0.89165540938E+02 0.  0.
    9000005    2    3    3    0    0  0.17586382316E+02  0.15559334755E+02  0.58078673443E+02  0.63439690565E+02  0.10004413480E+02 0.  0.
         22    1    3    3    0    0 -0.17586382316E+02 -0.15559334755E+02 -0.22538519016E+02  0.32547789178E+02  0.00000000000E+00 0.  1.
         22    1    4    4    0    0  0.17596380096E+02  0.16653633365E+02  0.56832956399E+02  0.61781558978E+02  0.00000000000E+00 0. -1.
         22    1    4    4    0    0 -0.99977796595E-02 -0.10942986105E+01  0.12457170440E+01  0.16581315865E+01  0.00000000000E+00 0. -1.
<mgrwt>
<rscale>  0 0.89165541E+02</rscale>
<asrwt>0</asrwt>
<pdfrwt beam="1">  1        1 0.10117510E-01 0.89165541E+02</pdfrwt>
<pdfrwt beam="2">  1       -1 0.46497943E-02 0.89165541E+02</pdfrwt>
<totfact> 0.10392466E+05</totfact>
</mgrwt>
</event>
<event>
 7    1  0.3565607E-009  0.9278199E+02  0.7818608E-02  0.1296251E+00
          1   -1    0    0  501    0  0.00000000000E+00  0.00000000000E+00  0.13224455436E+04  0.13224455436E+04  0.50400000000E-02 0. -1.
         -1   -1    0    0    0  501 -0.00000000000E+00 -0.00000000000E+00 -0.16273783861E+01  0.16273861906E+01  0.50400000000E-02 0.  1.
         23    2    1    2    0    0  0.00000000000E+00  0.00000000000E+00  0.13208181652E+04  0.13240729298E+04  0.92781991089E+02 0.  0.
    9000005    2    3    3    0    0  0.98641052139E+01 -0.29745769779E+02  0.11421989963E+04  0.11427254211E+04  0.14856971206E+02 0.  0.
         22    1    3    3    0    0 -0.98641052139E+01  0.29745769779E+02  0.17861916889E+03  0.18134750863E+03  0.00000000000E+00 0.  1.
         22    1    4    4    0    0  0.76149916107E+01 -0.16869706635E+02  0.88590803579E+03  0.88610136157E+03  0.00000000000E+00 0.  1.
         22    1    4    4    0    0  0.22491136032E+01 -0.12876063144E+02  0.25629096048E+03  0.25662405955E+03  0.00000000000E+00 0.  1.
<mgrwt>
<rscale>  0 0.92781991E+02</rscale>
<asrwt>0</asrwt>
<pdfrwt beam="1">  1        1 0.20345192E+00 0.92781991E+02</pdfrwt>
<pdfrwt beam="2">  1       -1 0.25036804E-03 0.92781991E+02</pdfrwt>
<totfact> 0.11537914E+05</totfact>
</mgrwt>
</event>
<event>
 7    1  0.3565607E-009  0.9097810E+02  0.7818608E-02  0.1300500E+00
         -1   -1    0    0    0  501 -0.00000000000E+00  0.00000000000E+00  0.21012356202E+02  0.21012356806E+02  0.50400000000E-02 0.  1.
          1   -1    0    0  501    0  0.00000000000E+00 -0.00000000000E+00 -0.98477932900E+02  0.98477933029E+02  0.50400000000E-02 0. -1.
         23    2    1    2    0    0  0.00000000000E+00  0.00000000000E+00 -0.77465576698E+02  0.11949028984E+03  0.90978095121E+02 0.  0.
    9000005    2    3    3    0    0  0.87835458162E+01  0.42172816940E+02 -0.22031816414E+02  0.49286308859E+02  0.93830773552E+01 0.  0.
         22    1    3    3    0    0 -0.87835458162E+01 -0.42172816940E+02 -0.55433760283E+02  0.70203980976E+02  0.00000000000E+00 0.  1.
         22    1    4    4    0    0  0.83213530059E+01  0.26573248122E+02 -0.18035940083E+02  0.33176461027E+02  0.00000000000E+00 0.  1.
         22    1    4    4    0    0  0.46219281028E+00  0.15599568818E+02 -0.39958763308E+01  0.16109847832E+02  0.00000000000E+00 0.  1.
<mgrwt>
<rscale>  0 0.90978095E+02</rscale>
<asrwt>0</asrwt>
<pdfrwt beam="2">  1        1 0.15150451E-01 0.90978095E+02</pdfrwt>
<pdfrwt beam="1">  1       -1 0.32326703E-02 0.90978095E+02</pdfrwt>
<totfact> 0.10480830E+05</totfact>
</mgrwt>
</event>
<event>
 7    1  0.3565607E-009  0.8970534E+02  0.7818608E-02  0.1303567E+00
          1   -1    0    0  501    0  0.00000000000E+00  0.00000000000E+00  0.41924304507E+03  0.41924304510E+03  0.50400000000E-02 0. -1.
         -1   -1    0    0    0  501 -0.00000000000E+00 -0.00000000000E+00 -0.47985568083E+01  0.47985594551E+01  0.50400000000E-02 0.  1.
         23    2    1    2    0    0  0.00000000000E+00  0.00000000000E+00  0.41444448826E+03  0.42404160456E+03  0.89705342893E+02 0.  0.
    9000005    2    3    3    0    0 -0.42888941800E+02  0.52036097749E+01  0.18912325817E+03  0.19461580912E+03  0.15529568353E+02 0.  0.
         22    1    3    3    0    0  0.42888941800E+02 -0.52036097749E+01  0.22532123009E+03  0.22942579544E+03  0.00000000000E+00 0. -1.
         22    1    4    4    0    0 -0.40360052131E+02  0.86529843071E+01  0.16302694916E+03  0.16817132365E+03  0.00000000000E+00 0.  1.
         22    1    4    4    0    0 -0.25288896697E+01 -0.34493745321E+01  0.26096309008E+02  0.26444485464E+02  0.00000000000E+00 0.  1.
<mgrwt>
<rscale>  0 0.89705343E+02</rscale>
<asrwt>0</asrwt>
<pdfrwt beam="1">  1        1 0.64498946E-01 0.89705343E+02</pdfrwt>
<pdfrwt beam="2">  1       -1 0.73823953E-03 0.89705343E+02</pdfrwt>
<totfact> 0.14190002E+05</totfact>
</mgrwt>
</event>
<event>
 7    1  0.3565607E-009  0.9422325E+02  0.7818608E-02  0.1292935E+00
          1   -1    0    0  501    0  0.00000000000E+00  0.00000000000E+00  0.26566834383E+01  0.26566882190E+01  0.50400000000E-02 0. -1.
         -1   -1    0    0    0  501 -0.00000000000E+00 -0.00000000000E+00 -0.83544140337E+03  0.83544140339E+03  0.50400000000E-02 0.  1.
         23    2    1    2    0    0  0.44408920985E-15  0.00000000000E+00 -0.83278471994E+03  0.83809809161E+03  0.94223252963E+02 0.  0.
    9000005    2    3    3    0    0  0.32232000656E+01  0.20241154049E+02 -0.79307527713E+03  0.79341103326E+03  0.10610333036E+02 0.  0.
         22    1    3    3    0    0 -0.32232000656E+01 -0.20241154049E+02 -0.39709442802E+02  0.44687058345E+02  0.00000000000E+00 0. -1.
         22    1    4    4    0    0  0.44193124014E+01  0.10303558484E+02 -0.25975060517E+03  0.25999244320E+03  0.00000000000E+00 0. -1.
         22    1    4    4    0    0 -0.11961123358E+01  0.99375955652E+01 -0.53332467197E+03  0.53341859006E+03  0.00000000000E+00 0. -1.
<mgrwt>
<rscale>  0 0.94223253E+02</rscale>
<asrwt>0</asrwt>
<pdfrwt beam="1">  1        1 0.40872156E-03 0.94223253E+02</pdfrwt>
<pdfrwt beam="2">  1       -1 0.12852924E+00 0.94223253E+02</pdfrwt>
<totfact> 0.28690185E+04</totfact>
</mgrwt>
</event>
<event>
 7    1  0.3565607E-009  0.9002765E+02  0.7818608E-02  0.1302785E+00
          1   -1    0    0  501    0  0.00000000000E+00  0.00000000000E+00  0.96741085460E+02  0.96741085592E+02  0.50400000000E-02 0. -1.
         -1   -1    0    0    0  501 -0.00000000000E+00 -0.00000000000E+00 -0.20945023711E+02  0.20945024317E+02  0.50400000000E-02 0.  1.
         23    2    1    2    0    0  0.35527136788E-14  0.00000000000E+00  0.75796061749E+02  0.11768610991E+03  0.90027648469E+02 0.  0.
    9000005    2    3    3    0    0 -0.29492227182E+02  0.18070390410E+02  0.39380454343E+01  0.37937097486E+02  0.15079280159E+02 0.  0.
         22    1    3    3    0    0  0.29492227182E+02 -0.18070390410E+02  0.71858016315E+02  0.79749012423E+02  0.00000000000E+00 0. -1.
         22    1    4    4    0    0 -0.17430177323E+02  0.18015438650E+02  0.58067686843E+01  0.25731025511E+02  0.00000000000E+00 0. -1.
         22    1    4    4    0    0 -0.12062049859E+02  0.54951759945E-01 -0.18687232501E+01  0.12206071976E+02  0.00000000000E+00 0. -1.
<mgrwt>
<rscale>  0 0.90027648E+02</rscale>
<asrwt>0</asrwt>
<pdfrwt beam="1">  1        1 0.14883244E-01 0.90027648E+02</pdfrwt>
<pdfrwt beam="2">  1       -1 0.32223114E-02 0.90027648E+02</pdfrwt>
<totfact> 0.10753278E+05</totfact>
</mgrwt>
</event>
<event>
 7    1  0.3565607E-009  0.8903129E+02  0.7818608E-02  0.1305215E+00
         -1   -1    0    0    0  501 -0.00000000000E+00  0.00000000000E+00  0.10442862025E+04  0.10442862025E+04  0.50400000000E-02 0.  1.
          1   -1    0    0  501    0  0.00000000000E+00 -0.00000000000E+00 -0.18976014651E+01  0.18976081582E+01  0.50400000000E-02 0. -1.
         23    2    1    2    0    0  0.88817841970E-15  0.00000000000E+00  0.10423886010E+04  0.10461838106E+04  0.89031287428E+02 0.  0.
    9000005    2    3    3    0    0  0.67286903316E+01  0.32778846314E+02  0.86469306504E+03  0.86536502970E+03  0.65429243100E+01 0.  0.
         22    1    3    3    0    0 -0.67286903316E+01 -0.32778846314E+02  0.17769553597E+03  0.18081878094E+03  0.00000000000E+00 0. -1.
         22    1    4    4    0    0  0.11282931882E+01  0.26459474085E+01  0.13180752139E+03  0.13183890465E+03  0.00000000000E+00 0.  1.
         22    1    4    4    0    0  0.56003971434E+01  0.30132898906E+02  0.73288554365E+03  0.73352612505E+03  0.00000000000E+00 0.  1.
<mgrwt>
<rscale>  0 0.89031287E+02</rscale>
<asrwt>0</asrwt>
<pdfrwt beam="2">  1        1 0.29193987E-03 0.89031287E+02</pdfrwt>
<pdfrwt beam="1">  1       -1 0.16065905E+00 0.89031287E+02</pdfrwt>
<totfact> 0.25874846E+04</totfact>
</mgrwt>
</event>
<event>
 7    1  0.3565607E-009  0.9047633E+02  0.7818608E-02  0.1301702E+00
         -1   -1    0    0    0  501 -0.00000000000E+00  0.00000000000E+00  0.11587227438E+03  0.11587227449E+03  0.50400000000E-02 0.  1.
          1   -1    0    0  501    0  0.00000000000E+00 -0.00000000000E+00 -0.17661616821E+02  0.17661617540E+02  0.50400000000E-02 0. -1.
         23    2    1    2    0    0 -0.35527136788E-14 -0.35527136788E-14  0.98210657561E+02  0.13353389203E+03  0.90476334269E+02 0.  0.
    9000005    2    3    3    0    0 -0.27380538762E+02  0.30419681238E+02  0.77426586967E+02  0.87631511919E+02  0.30585294398E+01 0.  0.
         22    1    3    3    0    0  0.27380538762E+02 -0.30419681238E+02  0.20784070594E+02  0.45902380113E+02  0.00000000000E+00 0. -1.
         22    1    4    4    0    0 -0.16783211114E+02  0.20690355886E+02  0.49183374257E+02  0.55935420846E+02  0.00000000000E+00 0.  1.
         22    1    4    4    0    0 -0.10597327649E+02  0.97293253521E+01  0.28243212711E+02  0.31696091073E+02  0.00000000000E+00 0.  1.
<mgrwt>
<rscale>  0 0.90476334E+02</rscale>
<asrwt>0</asrwt>
<pdfrwt beam="2">  1        1 0.27171720E-02 0.90476334E+02</pdfrwt>
<pdfrwt beam="1">  1       -1 0.17826503E-01 0.90476334E+02</pdfrwt>
<totfact> 0.80679772E+04</totfact>
</mgrwt>
</event>
<event>
 7    1  0.3565607E-009  0.9294319E+02  0.7818608E-02  0.1295877E+00
          1   -1    0    0  501    0  0.00000000000E+00  0.00000000000E+00  0.29935686331E+02  0.29935686756E+02  0.50400000000E-02 0. -1.
         -1   -1    0    0    0  501 -0.00000000000E+00 -0.00000000000E+00 -0.72141630513E+02  0.72141630689E+02  0.50400000000E-02 0.  1.
         23    2    1    2    0    0  0.00000000000E+00  0.00000000000E+00 -0.42205944182E+02  0.10207731745E+03  0.92943192395E+02 0.  0.
    9000005    2    3    3    0    0 -0.18883065791E+02 -0.40870146530E+02 -0.26628144915E+02  0.54436926168E+02  0.15079183595E+02 0.  0.
         22    1    3    3    0    0  0.18883065791E+02  0.40870146530E+02 -0.15577799266E+02  0.47640391277E+02  0.00000000000E+00 0. -1.
         22    1    4    4    0    0 -0.34712973057E+01 -0.25348457437E+02 -0.15166247231E+02  0.29742381453E+02  0.00000000000E+00 0. -1.
         22    1    4    4    0    0 -0.15411768485E+02 -0.15521689093E+02 -0.11461897685E+02  0.24694544715E+02  0.00000000000E+00 0. -1.
<mgrwt>
<rscale>  0 0.92943192E+02</rscale>
<asrwt>0</asrwt>
<pdfrwt beam="1">  1        1 0.46054903E-02 0.92943192E+02</pdfrwt>
<pdfrwt beam="2">  1       -1 0.11098712E-01 0.92943192E+02</pdfrwt>
<totfact> 0.81996861E+04</totfact>
</mgrwt>
</event>
<event>
 7    1  0.3954441E-009  0.1231953E+03  0.7818608E-02  0.1237917E+00
          1   -1    0    0  501    0  0.00000000000E+00  0.00000000000E+00  0.63173788129E+03  0.63173788131E+03  0.50400000000E-02 0. -1.
         -1   -1    0    0    0  501 -0.00000000000E+00 -0.00000000000E+00 -0.60060846295E+01  0.60060867442E+01  0.50400000000E-02 0.  1.
         23    2    1    2    0    0  0.71054273576E-14 -0.44408920985E-15  0.62573179666E+03  0.63774396805E+03  0.12319532230E+03 0.  0.
    9000005    2    3    3    0    0  0.60841854563E+02  0.89521491304E+00  0.34406048067E+03  0.34957515827E+03  0.11074486423E+02 0.  0.
         22    1    3    3    0    0 -0.60841854563E+02 -0.89521491304E+00  0.28167131599E+03  0.28816880978E+03  0.00000000000E+00 0. -1.
         22    1    4    4    0    0  0.22718029917E+02 -0.48301342780E+01  0.12134816835E+03  0.12355086823E+03  0.00000000000E+00 0. -1.
         22    1    4    4    0    0  0.38123824646E+02  0.57253491910E+01  0.22271231232E+03  0.22602429004E+03  0.00000000000E+00 0. -1.
<mgrwt>
<rscale>  0 0.12319532E+03</rscale>
<asrwt>0</asrwt>
<pdfrwt beam="1">  1        1 0.97190502E-01 0.12319532E+03</pdfrwt>
<pdfrwt beam="2">  1       -1 0.92401263E-03 0.12319532E+03</pdfrwt>
<totfact> 0.63270176E+04</totfact>
</mgrwt>
</event>
<event>
 7    1  0.3565607E-009  0.9396056E+02  0.7818608E-02  0.1293534E+00
         -1   -1    0    0    0  501 -0.00000000000E+00  0.00000000000E+00  0.58807598333E+02  0.58807598549E+02  0.50400000000E-02 0.  1.
          1   -1    0    0  501    0  0.00000000000E+00 -0.00000000000E+00 -0.37531660105E+02  0.37531660444E+02  0.50400000000E-02 0. -1.
         23    2    1    2    0    0 -0.71054273576E-14 -0.88817841970E-15  0.21275938228E+02  0.96339258993E+02  0.93960562343E+02 0.  0.
    9000005    2    3    3    0    0  0.45169092356E+02  0.40290092823E+01 -0.19044319080E+01  0.45409804060E+02  0.13941390896E+01 0.  0.
         22    1    3    3    0    0 -0.45169092356E+02 -0.40290092823E+01  0.23180370136E+02  0.50929454932E+02  0.00000000000E+00 0.  1.
         22    1    4    4    0    0  0.12787280000E+02  0.16604188185E+01 -0.89862093285E+00  0.12925905772E+02  0.00000000000E+00 0. -1.
         22    1    4    4    0    0  0.32381812357E+02  0.23685904639E+01 -0.10058109752E+01  0.32483898288E+02  0.00000000000E+00 0. -1.
<mgrwt>
<rscale>  0 0.93960562E+02</rscale>
<asrwt>0</asrwt>
<pdfrwt beam="2">  1        1 0.57741016E-02 0.93960562E+02</pdfrwt>
<pdfrwt beam="1">  1       -1 0.90473228E-02 0.93960562E+02</pdfrwt>
<totfact> 0.82425345E+04</totfact>
</mgrwt>
</event>
<event>
 7    1  0.3565607E-009  0.9197797E+02  0.7818608E-02  0.1298131E+00
         -1   -1    0    0    0  501 -0.00000000000E+00  0.00000000000E+00  0.24223650523E+02  0.24223651047E+02  0.50400000000E-02 0.  1.
          1   -1    0    0  501    0  0.00000000000E+00 -0.00000000000E+00 -0.87310817208E+02  0.87310817353E+02  0.50400000000E-02 0. -1.
         23    2    1    2    0    0  0.00000000000E+00 -0.35527136788E-14 -0.63087166685E+02  0.11153446840E+03  0.91977970412E+02 0.  0.
    9000005    2    3    3    0    0 -0.13653758854E+02 -0.29770326069E+02 -0.69465130037E+02  0.78167181103E+02  0.14560441805E+02 0.  0.
         22    1    3    3    0    0  0.13653758854E+02  0.29770326069E+02  0.63779633518E+01  0.33367287298E+02  0.00000000000E+00 0.  1.
         22    1    4    4    0    0 -0.88776962552E+01 -0.29766324231E+02 -0.59770371831E+02  0.67359816640E+02  0.00000000000E+00 0.  1.
         22    1    4    4    0    0 -0.47760625993E+01 -0.40018375290E-02 -0.96947582058E+01  0.10807364463E+02  0.00000000000E+00 0.  1.
<mgrwt>
<rscale>  0 0.91977970E+02</rscale>
<asrwt>0</asrwt>
<pdfrwt beam="2">  1        1 0.13432433E-01 0.91977970E+02</pdfrwt>
<pdfrwt beam="1">  1       -1 0.37267156E-02 0.91977970E+02</pdfrwt>
<totfact> 0.99737524E+04</totfact>
</mgrwt>
</event>
<event>
 7    1  0.3565607E-009  0.8899931E+02  0.7818608E-02  0.1305293E+00
         -1   -1    0    0    0  501 -0.00000000000E+00  0.00000000000E+00  0.70970519962E+02  0.70970520141E+02  0.50400000000E-02 0.  1.
          1   -1    0    0  501    0  0.00000000000E+00 -0.00000000000E+00 -0.27901994702E+02  0.27901995157E+02  0.50400000000E-02 0. -1.
         23    2    1    2    0    0 -0.71054273576E-14  0.00000000000E+00  0.43068525260E+02  0.98872515298E+02  0.88999305690E+02 0.  0.
    9000005    2    3    3    0    0  0.40512321198E+02 -0.89698314647E+01  0.38727908998E+02  0.57152651984E+02  0.66984063855E+01 0.  0.
         22    1    3    3    0    0 -0.40512321198E+02  0.89698314647E+01  0.43406162612E+01  0.41719863313E+02  0.00000000000E+00 0. -1.
         22    1    4    4    0    0  0.37391262792E+02 -0.62925137963E+01  0.34792536680E+02  0.51460886814E+02  0.00000000000E+00 0. -1.
         22    1    4    4    0    0  0.31210584065E+01 -0.26773176684E+01  0.39353723179E+01  0.56917651704E+01  0.00000000000E+00 0. -1.
<mgrwt>
<rscale>  0 0.88999306E+02</rscale>
<asrwt>0</asrwt>
<pdfrwt beam="2">  1        1 0.42926147E-02 0.88999306E+02</pdfrwt>
<pdfrwt beam="1">  1       -1 0.10918541E-01 0.88999306E+02</pdfrwt>
<totfact> 0.91831055E+04</totfact>
</mgrwt>
</event>
<event>
 7    1  0.3565607E-009  0.9265604E+02  0.7818608E-02  0.1296544E+00
         -1   -1    0    0    0  501 -0.00000000000E+00  0.00000000000E+00  0.66784395944E+01  0.66784414962E+01  0.50400000000E-02 0.  1.
          1   -1    0    0  501    0  0.00000000000E+00 -0.00000000000E+00 -0.32137522811E+03  0.32137522815E+03  0.50400000000E-02 0. -1.
         23    2    1    2    0    0  0.00000000000E+00  0.00000000000E+00 -0.31469678851E+03  0.32805366964E+03  0.92656038475E+02 0.  0.
    9000005    2    3    3    0    0 -0.30178821100E+02 -0.31621721246E+02 -0.11891805652E+03  0.12745455101E+03  0.13873136199E+02 0.  0.
         22    1    3    3    0    0  0.30178821100E+02  0.31621721246E+02 -0.19577873199E+03  0.20059911863E+03  0.00000000000E+00 0. -1.
         22    1    4    4    0    0 -0.26908659327E+02 -0.21077848454E+02 -0.79887076274E+02  0.86892442697E+02  0.00000000000E+00 0.  1.
         22    1    4    4    0    0 -0.32701617730E+01 -0.10543872792E+02 -0.39030980248E+02  0.40562108310E+02  0.00000000000E+00 0.  1.
<mgrwt>
<rscale>  0 0.92656038E+02</rscale>
<asrwt>0</asrwt>
<pdfrwt beam="2">  1        1 0.49442331E-01 0.92656038E+02</pdfrwt>
<pdfrwt beam="1">  1       -1 0.10274526E-02 0.92656038E+02</pdfrwt>
<totfact> 0.12434420E+05</totfact>
</mgrwt>
</event>
<event>
 7    1  0.3565607E-009  0.9167109E+02  0.7818608E-02  0.1298855E+00
         -1   -1    0    0    0  501 -0.00000000000E+00  0.00000000000E+00  0.39234427729E+02  0.39234428052E+02  0.50400000000E-02 0.  1.
          1   -1    0    0  501    0  0.00000000000E+00 -0.00000000000E+00 -0.53547281945E+02  0.53547282182E+02  0.50400000000E-02 0. -1.
         23    2    1    2    0    0  0.00000000000E+00  0.00000000000E+00 -0.14312854216E+02  0.92781710234E+02  0.91671085726E+02 0.  0.
    9000005    2    3    3    0    0 -0.55184374071E+01  0.40488903625E+02 -0.27214086849E+02  0.49930266015E+02  0.90895804701E+01 0.  0.
         22    1    3    3    0    0  0.55184374071E+01 -0.40488903625E+02  0.12901232633E+02  0.42851444219E+02  0.00000000000E+00 0.  1.
         22    1    4    4    0    0 -0.16188955846E+01  0.62563602190E+00 -0.17664520927E+01  0.24764079514E+01  0.00000000000E+00 0. -1.
         22    1    4    4    0    0 -0.38995418225E+01  0.39863267603E+02 -0.25447634756E+02  0.47453858064E+02  0.00000000000E+00 0. -1.
<mgrwt>
<rscale>  0 0.91671086E+02</rscale>
<asrwt>0</asrwt>
<pdfrwt beam="2">  1        1 0.82380434E-02 0.91671086E+02</pdfrwt>
<pdfrwt beam="1">  1       -1 0.60360658E-02 0.91671086E+02</pdfrwt>
<totfact> 0.93315055E+04</totfact>
</mgrwt>
</event>
<event>
 7    1  0.3565607E-009  0.9110831E+02  0.7818608E-02  0.1300190E+00
         -1   -1    0    0    0  501 -0.00000000000E+00  0.00000000000E+00  0.17102953793E+02  0.17102954536E+02  0.50400000000E-02 0.  1.
          1   -1    0    0  501    0  0.00000000000E+00 -0.00000000000E+00 -0.12133465017E+03  0.12133465028E+03  0.50400000000E-02 0. -1.
         23    2    1    2    0    0 -0.71054273576E-14  0.35527136788E-14 -0.10423169638E+03  0.13843760481E+03  0.91108308602E+02 0.  0.
    9000005    2    3    3    0    0  0.34946124297E+02 -0.27187102480E+02 -0.66408948503E+02  0.80205908963E+02  0.79037488972E+01 0.  0.
         22    1    3    3    0    0 -0.34946124297E+02  0.27187102480E+02 -0.37822747876E+02  0.58231695850E+02  0.00000000000E+00 0.  1.
         22    1    4    4    0    0  0.11762353472E+02 -0.57759474944E+01 -0.15363198308E+02  0.20192632095E+02  0.00000000000E+00 0.  1.
         22    1    4    4    0    0  0.23183770825E+02 -0.21411154986E+02 -0.51045750195E+02  0.60013276868E+02  0.00000000000E+00 0.  1.
<mgrwt>
<rscale>  0 0.91108309E+02</rscale>
<asrwt>0</asrwt>
<pdfrwt beam="2">  1        1 0.18666869E-01 0.91108309E+02</pdfrwt>
<pdfrwt beam="1">  1       -1 0.26312238E-02 0.91108309E+02</pdfrwt>
<totfact> 0.10816679E+05</totfact>
</mgrwt>
</event>
<event>
 7    1  0.3565607E-009  0.9128917E+02  0.7818608E-02  0.1299759E+00
         -1   -1    0    0    0  501 -0.00000000000E+00  0.00000000000E+00  0.16453812657E+03  0.16453812665E+03  0.50400000000E-02 0.  1.
          1   -1    0    0  501    0  0.00000000000E+00 -0.00000000000E+00 -0.12662279919E+02  0.12662280922E+02  0.50400000000E-02 0. -1.
         23    2    1    2    0    0  0.00000000000E+00  0.00000000000E+00  0.15187584665E+03  0.17720040757E+03  0.91289165000E+02 0.  0.
    9000005    2    3    3    0    0  0.20191022595E+02  0.32933363522E+02  0.31903488082E+02  0.51162117169E+02  0.10365609249E+02 0.  0.
         22    1    3    3    0    0 -0.20191022595E+02 -0.32933363522E+02  0.11997235857E+03  0.12603829040E+03  0.00000000000E+00 0. -1.
         22    1    4    4    0    0  0.48561125624E+01  0.14627541897E+02  0.79642483257E+01  0.17348661693E+02  0.00000000000E+00 0.  1.
         22    1    4    4    0    0  0.15334910033E+02  0.18305821625E+02  0.23939239757E+02  0.33813455476E+02  0.00000000000E+00 0.  1.
<mgrwt>
<rscale>  0 0.91289165E+02</rscale>
<asrwt>0</asrwt>
<pdfrwt beam="2">  1        1 0.19480433E-02 0.91289165E+02</pdfrwt>
<pdfrwt beam="1">  1       -1 0.25313556E-01 0.91289165E+02</pdfrwt>
<totfact> 0.72903166E+04</totfact>
</mgrwt>
</event>
<event>
 7    1  0.3565607E-009  0.9269578E+02  0.7818608E-02  0.1296452E+00
          1   -1    0    0  501    0  0.00000000000E+00  0.00000000000E+00  0.38107318699E+03  0.38107318702E+03  0.50400000000E-02 0. -1.
         -1   -1    0    0    0  501 -0.00000000000E+00 -0.00000000000E+00 -0.56370447139E+01  0.56370469670E+01  0.50400000000E-02 0.  1.
         23    2    1    2    0    0  0.00000000000E+00  0.00000000000E+00  0.37543614228E+03  0.38671023399E+03  0.92695782783E+02 0.  0.
    9000005    2    3    3    0    0 -0.14995526985E+02 -0.41204719460E+02  0.13883614857E+03  0.14608136673E+03  0.11899362241E+02 0.  0.
         22    1    3    3    0    0  0.14995526985E+02  0.41204719460E+02  0.23659999371E+03  0.24062886726E+03  0.00000000000E+00 0. -1.
         22    1    4    4    0    0 -0.44886903005E+01 -0.74383842727E+01  0.44381680704E+02  0.45224014454E+02  0.00000000000E+00 0.  1.
         22    1    4    4    0    0 -0.10506836684E+02 -0.33766335188E+02  0.94454467864E+02  0.10085735228E+03  0.00000000000E+00 0.  1.
<mgrwt>
<rscale>  0 0.92695783E+02</rscale>
<asrwt>0</asrwt>
<pdfrwt beam="1">  1        1 0.58626648E-01 0.92695783E+02</pdfrwt>
<pdfrwt beam="2">  1       -1 0.86723777E-03 0.92695783E+02</pdfrwt>
<totfact> 0.12804901E+05</totfact>
</mgrwt>
</event>
<event>
 7    1  0.3565607E-009  0.9187892E+02  0.7818608E-02  0.1298364E+00
          1   -1    0    0  501    0  0.00000000000E+00  0.00000000000E+00  0.54679650589E+03  0.54679650591E+03  0.50400000000E-02 0. -1.
         -1   -1    0    0    0  501 -0.00000000000E+00 -0.00000000000E+00 -0.38596316899E+01  0.38596349806E+01  0.50400000000E-02 0.  1.
         23    2    1    2    0    0  0.71054273576E-14  0.00000000000E+00  0.54293687420E+03  0.55065614089E+03  0.91878921075E+02 0.  0.
    9000005    2    3    3    0    0  0.38312822228E+02 -0.15192568430E+02  0.38729046005E+03  0.38964529430E+03  0.11439774604E+02 0.  0.
         22    1    3    3    0    0 -0.38312822228E+02  0.15192568430E+02  0.15564641415E+03  0.16101084659E+03  0.00000000000E+00 0.  1.
         22    1    4    4    0    0  0.25780684193E+02 -0.14436876378E+02  0.23783265996E+03  0.23966109660E+03  0.00000000000E+00 0. -1.
         22    1    4    4    0    0  0.12532138035E+02 -0.75569205179E+00  0.14945780009E+03  0.14998419770E+03  0.00000000000E+00 0. -1.
<mgrwt>
<rscale>  0 0.91878921E+02</rscale>
<asrwt>0</asrwt>
<pdfrwt beam="1">  1        1 0.84122547E-01 0.91878921E+02</pdfrwt>
<pdfrwt beam="2">  1       -1 0.59378970E-03 0.91878921E+02</pdfrwt>
<totfact> 0.13775665E+05</totfact>
</mgrwt>
</event>
<event>
 7    1  0.3565607E-009  0.9262727E+02  0.7818608E-02  0.1296611E+00
          1   -1    0    0  501    0  0.00000000000E+00  0.00000000000E+00  0.36335081618E+03  0.36335081622E+03  0.50400000000E-02 0. -1.
         -1   -1    0    0    0  501 -0.00000000000E+00 -0.00000000000E+00 -0.59032545681E+01  0.59032567196E+01  0.50400000000E-02 0.  1.
         23    2    1    2    0    0  0.00000000000E+00  0.00000000000E+00  0.35744756161E+03  0.36925407294E+03  0.92627269616E+02 0.  0.
    9000005    2    3    3    0    0  0.30930699303E+02 -0.22622874744E+02  0.27995645620E+03  0.28280539429E+03  0.11609093495E+02 0.  0.
         22    1    3    3    0    0 -0.30930699303E+02  0.22622874744E+02  0.77491105414E+02  0.86448678644E+02  0.00000000000E+00 0.  1.
         22    1    4    4    0    0  0.72910512366E+01 -0.28206893092E+00  0.40808696906E+02  0.41455864895E+02  0.00000000000E+00 0. -1.
         22    1    4    4    0    0  0.23639648066E+02 -0.22340805813E+02  0.23914775929E+03  0.24134952940E+03  0.00000000000E+00 0. -1.
<mgrwt>
<rscale>  0 0.92627270E+02</rscale>
<asrwt>0</asrwt>
<pdfrwt beam="1">  1        1 0.55900135E-01 0.92627270E+02</pdfrwt>
<pdfrwt beam="2">  1       -1 0.90819302E-03 0.92627270E+02</pdfrwt>
<totfact> 0.12724790E+05</totfact>
</mgrwt>
</event>
<event>
 7    1  0.3565607E-009  0.8695229E+02  0.7818608E-02  0.1310405E+00
         -1   -1    0    0    0  501 -0.00000000000E+00  0.00000000000E+00  0.13620092235E+02  0.13620093168E+02  0.50400000000E-02 0.  1.
          1   -1    0    0  501    0  0.00000000000E+00 -0.00000000000E+00 -0.13877842484E+03  0.13877842494E+03  0.50400000000E-02 0. -1.
         23    2    1    2    0    0  0.00000000000E+00  0.35527136788E-14 -0.12515833261E+03  0.15239851810E+03  0.86952286333E+02 0.  0.
    9000005    2    3    3    0    0  0.36040377527E+02 -0.20422577420E+02 -0.52312039770E+02  0.68597725379E+02  0.15909366472E+02 0.  0.
         22    1    3    3    0    0 -0.36040377527E+02  0.20422577420E+02 -0.72846292839E+02  0.83800792724E+02  0.00000000000E+00 0. -1.
         22    1    4    4    0    0  0.33179712075E+02 -0.22708109366E+02 -0.44519537205E+02  0.59987838079E+02  0.00000000000E+00 0.  1.
         22    1    4    4    0    0  0.28606654520E+01  0.22855319467E+01 -0.77925025645E+01  0.86098873004E+01  0.00000000000E+00 0.  1.
<mgrwt>
<rscale>  0 0.86952286E+02</rscale>
<asrwt>0</asrwt>
<pdfrwt beam="2">  1        1 0.21350526E-01 0.86952286E+02</pdfrwt>
<pdfrwt beam="1">  1       -1 0.20953990E-02 0.86952286E+02</pdfrwt>
<totfact> 0.12562094E+05</totfact>
</mgrwt>
</event>
<event>
 7    1  0.3565607E-009  0.9228863E+02  0.7818608E-02  0.1297402E+00
          1   -1    0    0  501    0  0.00000000000E+00  0.00000000000E+00  0.32474648627E+02  0.32474649018E+02  0.50400000000E-02 0. -1.
         -1   -1    0    0    0  501 -0.00000000000E+00 -0.00000000000E+00 -0.65568004404E+02  0.65568004598E+02  0.50400000000E-02 0.  1.
         23    2    1    2    0    0 -0.35527136788E-14  0.00000000000E+00 -0.33093355778E+02  0.98042653616E+02  0.92288632732E+02 0.  0.
    9000005    2    3    3    0    0 -0.28554924380E+02  0.20910076838E+02  0.14648448028E+02  0.38612906432E+02  0.48748839773E+01 0.  0.
         22    1    3    3    0    0  0.28554924380E+02 -0.20910076838E+02 -0.47741803806E+02  0.59429747184E+02  0.00000000000E+00 0.  1.
         22    1    4    4    0    0 -0.16587058095E+02  0.14692132709E+02  0.10361625665E+02  0.24461245802E+02  0.00000000000E+00 0. -1.
         22    1    4    4    0    0 -0.11967866286E+02  0.62179441292E+01  0.42868223631E+01  0.14151660630E+02  0.00000000000E+00 0. -1.
<mgrwt>
<rscale>  0 0.92288633E+02</rscale>
<asrwt>0</asrwt>
<pdfrwt beam="1">  1        1 0.49960998E-02 0.92288633E+02</pdfrwt>
<pdfrwt beam="2">  1       -1 0.10087385E-01 0.92288633E+02</pdfrwt>
<totfact> 0.84793601E+04</totfact>
</mgrwt>
</event>
<event>
 7    1  0.3565607E-009  0.9254680E+02  0.7818608E-02  0.1296799E+00
          1   -1    0    0  501    0  0.00000000000E+00  0.00000000000E+00  0.11645255653E+03  0.11645255664E+03  0.50400000000E-02 0. -1.
         -1   -1    0    0    0  501 -0.00000000000E+00 -0.00000000000E+00 -0.18387123835E+02  0.18387124526E+02  0.50400000000E-02 0.  1.
         23    2    1    2    0    0  0.00000000000E+00  0.00000000000E+00  0.98065432696E+02  0.13483968117E+03  0.92546801820E+02 0.  0.
    9000005    2    3    3    0    0 -0.25589890139E+02 -0.16990580119E+02  0.98479341262E+02  0.10412008465E+03  0.14116978467E+02 0.  0.
         22    1    3    3    0    0  0.25589890139E+02  0.16990580119E+02 -0.41390856570E+00  0.30719596521E+02  0.00000000000E+00 0.  1.
         22    1    4    4    0    0 -0.45909172612E+01 -0.11035508292E+02  0.32912001388E+02  0.35015122446E+02  0.00000000000E+00 0.  1.
         22    1    4    4    0    0 -0.20998972878E+02 -0.59550718272E+01  0.65567339874E+02  0.69104962199E+02  0.00000000000E+00 0.  1.
<mgrwt>
<rscale>  0 0.92546802E+02</rscale>
<asrwt>0</asrwt>
<pdfrwt beam="1">  1        1 0.17915778E-01 0.92546802E+02</pdfrwt>
<pdfrwt beam="2">  1       -1 0.28287884E-02 0.92546802E+02</pdfrwt>
<totfact> 0.10292114E+05</totfact>
</mgrwt>
</event>
<event>
 7    1  0.3565607E-009  0.9366726E+02  0.7818608E-02  0.1294206E+00
          1   -1    0    0  501    0  0.00000000000E+00  0.00000000000E+00  0.32495795239E+03  0.32495795243E+03  0.50400000000E-02 0. -1.
         -1   -1    0    0    0  501 -0.00000000000E+00 -0.00000000000E+00 -0.67497618185E+01  0.67497637002E+01  0.50400000000E-02 0.  1.
         23    2    1    2    0    0  0.17763568394E-14  0.00000000000E+00  0.31820819058E+03  0.33170771613E+03  0.93667264255E+02 0.  0.
    9000005    2    3    3    0    0 -0.10358170284E+02  0.16228085188E+02  0.31012616420E+03  0.31082802287E+03  0.80733907499E+01 0.  0.
         22    1    3    3    0    0  0.10358170284E+02 -0.16228085188E+02  0.80820263748E+01  0.20879693264E+02  0.00000000000E+00 0.  1.
         22    1    4    4    0    0 -0.98926752068E+00  0.28120704683E+01  0.10780345947E+03  0.10784466729E+03  0.00000000000E+00 0. -1.
         22    1    4    4    0    0 -0.93689027632E+01  0.13416014720E+02  0.20232270473E+03  0.20298335558E+03  0.00000000000E+00 0. -1.
<mgrwt>
<rscale>  0 0.93667264E+02</rscale>
<asrwt>0</asrwt>
<pdfrwt beam="1">  1        1 0.49993537E-01 0.93667264E+02</pdfrwt>
<pdfrwt beam="2">  1       -1 0.10384249E-02 0.93667264E+02</pdfrwt>
<totfact> 0.12104320E+05</totfact>
</mgrwt>
</event>
<event>
 7    1  0.3565607E-009  0.8688965E+02  0.7818608E-02  0.1310564E+00
          1   -1    0    0  501    0  0.00000000000E+00  0.00000000000E+00  0.29305446647E+02  0.29305447080E+02  0.50400000000E-02 0. -1.
         -1   -1    0    0    0  501 -0.00000000000E+00 -0.00000000000E+00 -0.64406215137E+02  0.64406215334E+02  0.50400000000E-02 0.  1.
         23    2    1    2    0    0  0.00000000000E+00  0.00000000000E+00 -0.35100768490E+02  0.93711662414E+02  0.86889652571E+02 0.  0.
    9000005    2    3    3    0    0  0.50433263315E+01  0.36063932100E+02  0.68598010814E+01  0.38153299068E+02  0.90870798303E+01 0.  0.
         22    1    3    3    0    0 -0.50433263315E+01 -0.36063932100E+02 -0.41960569571E+02  0.55558363347E+02  0.00000000000E+00 0.  1.
         22    1    4    4    0    0  0.45023683389E+01  0.30612783528E+02  0.23027282056E+01  0.31027671411E+02  0.00000000000E+00 0. -1.
         22    1    4    4    0    0  0.54095799253E+00  0.54511485725E+01  0.45570728758E+01  0.71256276569E+01  0.00000000000E+00 0. -1.
<mgrwt>
<rscale>  0 0.86889653E+02</rscale>
<asrwt>0</asrwt>
<pdfrwt beam="1">  1        1 0.45085303E-02 0.86889653E+02</pdfrwt>
<pdfrwt beam="2">  1       -1 0.99086485E-02 0.86889653E+02</pdfrwt>
<totfact> 0.99107435E+04</totfact>
</mgrwt>
</event>
<event>
 7    1  0.3565607E-009  0.9408360E+02  0.7818608E-02  0.1293253E+00
          1   -1    0    0  501    0  0.00000000000E+00  0.00000000000E+00  0.25536181445E+02  0.25536181943E+02  0.50400000000E-02 0. -1.
         -1   -1    0    0    0  501 -0.00000000000E+00 -0.00000000000E+00 -0.86658650040E+02  0.86658650187E+02  0.50400000000E-02 0.  1.
         23    2    1    2    0    0  0.00000000000E+00  0.00000000000E+00 -0.61122468595E+02  0.11219483213E+03  0.94083602129E+02 0.  0.
    9000005    2    3    3    0    0  0.15214066441E+02 -0.39610618739E+02 -0.52207014503E+02  0.68836392856E+02  0.14574212965E+02 0.  0.
         22    1    3    3    0    0 -0.15214066441E+02  0.39610618739E+02 -0.89154540919E+01  0.43358439274E+02  0.00000000000E+00 0. -1.
         22    1    4    4    0    0  0.12312659133E+02 -0.28676822670E+02 -0.46916435625E+02  0.56348146954E+02  0.00000000000E+00 0. -1.
         22    1    4    4    0    0  0.29014073088E+01 -0.10933796069E+02 -0.52905788776E+01  0.12488245902E+02  0.00000000000E+00 0. -1.
<mgrwt>
<rscale>  0 0.94083602E+02</rscale>
<asrwt>0</asrwt>
<pdfrwt beam="1">  1        1 0.39286434E-02 0.94083602E+02</pdfrwt>
<pdfrwt beam="2">  1       -1 0.13332100E-01 0.94083602E+02</pdfrwt>
<totfact> 0.77028506E+04</totfact>
</mgrwt>
</event>
<event>
 7    1  0.3565607E-009  0.9313749E+02  0.7818608E-02  0.1295427E+00
          1   -1    0    0  501    0  0.00000000000E+00  0.00000000000E+00  0.94769796285E+02  0.94769796419E+02  0.50400000000E-02 0. -1.
         -1   -1    0    0    0  501 -0.00000000000E+00 -0.00000000000E+00 -0.22883325819E+02  0.22883326374E+02  0.50400000000E-02 0.  1.
         23    2    1    2    0    0 -0.17763568394E-14  0.00000000000E+00  0.71886470467E+02  0.11765312279E+03  0.93137493346E+02 0.  0.
    9000005    2    3    3    0    0  0.12146091645E+02 -0.28437037263E+02  0.79529638767E+02  0.85800169206E+02  0.89729015881E+01 0.  0.
         22    1    3    3    0    0 -0.12146091645E+02  0.28437037263E+02 -0.76431682999E+01  0.31852953587E+02  0.00000000000E+00 0.  1.
         22    1    4    4    0    0 -0.77861778743E+00 -0.69597772154E+01  0.20713856552E+02  0.21865694542E+02  0.00000000000E+00 0. -1.
         22    1    4    4    0    0  0.12924709432E+02 -0.21477260048E+02  0.58815782215E+02  0.63934474664E+02  0.00000000000E+00 0. -1.
<mgrwt>
<rscale>  0 0.93137493E+02</rscale>
<asrwt>0</asrwt>
<pdfrwt beam="1">  1        1 0.14579969E-01 0.93137493E+02</pdfrwt>
<pdfrwt beam="2">  1       -1 0.35205117E-02 0.93137493E+02</pdfrwt>
<totfact> 0.97673171E+04</totfact>
</mgrwt>
</event>
<event>
 7    1  0.3565607E-009  0.9740402E+02  0.7818608E-02  0.1285852E+00
          1   -1    0    0  501    0  0.00000000000E+00  0.00000000000E+00  0.39406277174E+02  0.39406277497E+02  0.50400000000E-02 0. -1.
         -1   -1    0    0    0  501 -0.00000000000E+00 -0.00000000000E+00 -0.60190550891E+02  0.60190551102E+02  0.50400000000E-02 0.  1.
         23    2    1    2    0    0 -0.17763568394E-14  0.00000000000E+00 -0.20784273716E+02  0.99596828598E+02  0.97404015487E+02 0.  0.
    9000005    2    3    3    0    0  0.13636004742E+02  0.10309898919E+02  0.34956612672E+02  0.41293474866E+02  0.13818525823E+02 0.  0.
         22    1    3    3    0    0 -0.13636004742E+02 -0.10309898919E+02 -0.55740886389E+02  0.58303353732E+02  0.00000000000E+00 0.  1.
         22    1    4    4    0    0 -0.86916472733E+00  0.63877052806E+01  0.14880719379E+02  0.16217090840E+02  0.00000000000E+00 0. -1.
         22    1    4    4    0    0  0.14505169470E+02  0.39221936384E+01  0.20075893293E+02  0.25076384026E+02  0.00000000000E+00 0. -1.
<mgrwt>
<rscale>  0 0.97404015E+02</rscale>
<asrwt>0</asrwt>
<pdfrwt beam="1">  1        1 0.60625042E-02 0.97404015E+02</pdfrwt>
<pdfrwt beam="2">  1       -1 0.92600848E-02 0.97404015E+02</pdfrwt>
<totfact> 0.74954192E+04</totfact>
</mgrwt>
</event>
<event>
 7    1  0.4413960E-009  0.9295530E+02  0.7818608E-02  0.1295849E+00
          1   -1    0    0  501    0  0.00000000000E+00  0.00000000000E+00  0.28188899864E+03  0.28188899869E+03  0.50400000000E-02 0. -1.
         -1   -1    0    0    0  501 -0.00000000000E+00 -0.00000000000E+00 -0.76632000383E+01  0.76632016957E+01  0.50400000000E-02 0.  1.
         23    2    1    2    0    0  0.00000000000E+00 -0.88817841970E-15  0.27422579860E+03  0.28955220038E+03  0.92955301767E+02 0.  0.
    9000005    2    3    3    0    0 -0.20020501571E+02  0.62539439844E+01  0.26557906344E+03  0.26686523656E+03  0.15648745930E+02 0.  0.
         22    1    3    3    0    0  0.20020501571E+02 -0.62539439844E+01  0.86467351672E+01  0.22686963824E+02  0.00000000000E+00 0.  1.
         22    1    4    4    0    0 -0.18486963714E+02  0.90901911191E+01  0.17179782815E+03  0.17302859059E+03  0.00000000000E+00 0.  1.
         22    1    4    4    0    0 -0.15335378567E+01 -0.28362471347E+01  0.93781235285E+02  0.93836645974E+02  0.00000000000E+00 0.  1.
<mgrwt>
<rscale>  0 0.92955302E+02</rscale>
<asrwt>0</asrwt>
<pdfrwt beam="1">  1        1 0.43367525E-01 0.92955302E+02</pdfrwt>
<pdfrwt beam="2">  1       -1 0.11789543E-02 0.92955302E+02</pdfrwt>
<totfact> 0.12023094E+05</totfact>
</mgrwt>
</event>
<event>
 7    1  0.3565607E-009  0.9052865E+02  0.7818608E-02  0.1301577E+00
         -1   -1    0    0    0  501 -0.00000000000E+00  0.00000000000E+00  0.28145462907E+02  0.28145463358E+02  0.50400000000E-02 0.  1.
          1   -1    0    0  501    0  0.00000000000E+00 -0.00000000000E+00 -0.72795362003E+02  0.72795362177E+02  0.50400000000E-02 0. -1.
         23    2    1    2    0    0  0.00000000000E+00  0.00000000000E+00 -0.44649899096E+02  0.10094082554E+03  0.90528651655E+02 0.  0.
    9000005    2    3    3    0    0  0.74900684909E+01 -0.16758371560E+02  0.23732924886E+02  0.30137190324E+02  0.28380228392E+01 0.  0.
         22    1    3    3    0    0 -0.74900684909E+01  0.16758371560E+02 -0.68382823982E+02  0.70803635211E+02  0.00000000000E+00 0. -1.
         22    1    4    4    0    0  0.41166722674E+01 -0.12345925775E+02  0.16973539190E+02  0.21388546150E+02  0.00000000000E+00 0. -1.
         22    1    4    4    0    0  0.33733962235E+01 -0.44124457853E+01  0.67593856966E+01  0.87486441741E+01  0.00000000000E+00 0. -1.
<mgrwt>
<rscale>  0 0.90528652E+02</rscale>
<asrwt>0</asrwt>
<pdfrwt beam="2">  1        1 0.11199286E-01 0.90528652E+02</pdfrwt>
<pdfrwt beam="1">  1       -1 0.43300713E-02 0.90528652E+02</pdfrwt>
<totfact> 0.10123463E+05</totfact>
</mgrwt>
</event>
<event>
 7    1  0.3565607E-009  0.9116188E+02  0.7818608E-02  0.1300062E+00
          1   -1    0    0  501    0  0.00000000000E+00  0.00000000000E+00  0.58235597696E+02  0.58235597914E+02  0.50400000000E-02 0. -1.
         -1   -1    0    0    0  501 -0.00000000000E+00 -0.00000000000E+00 -0.35676150148E+02  0.35676150504E+02  0.50400000000E-02 0.  1.
         23    2    1    2    0    0  0.00000000000E+00  0.00000000000E+00  0.22559447548E+02  0.93911748418E+02  0.91161876995E+02 0.  0.
    9000005    2    3    3    0    0  0.37338218712E+02  0.45461442728E+01  0.37619493139E+02  0.53394900348E+02  0.45802963572E+01 0.  0.
         22    1    3    3    0    0 -0.37338218712E+02 -0.45461442728E+01 -0.15060045591E+02  0.40516848070E+02  0.00000000000E+00 0.  1.
         22    1    4    4    0    0  0.13945829202E+02  0.35587536983E+01  0.16086570302E+02  0.21585379869E+02  0.00000000000E+00 0.  1.
         22    1    4    4    0    0  0.23392389510E+02  0.98739057444E+00  0.21532922837E+02  0.31809520478E+02  0.00000000000E+00 0.  1.
<mgrwt>
<rscale>  0 0.91161877E+02</rscale>
<asrwt>0</asrwt>
<pdfrwt beam="1">  1        1 0.89593227E-02 0.91161877E+02</pdfrwt>
<pdfrwt beam="2">  1       -1 0.54886386E-02 0.91161877E+02</pdfrwt>
<totfact> 0.95981274E+04</totfact>
</mgrwt>
</event>
<event>
 7    1  0.3565607E-009  0.9774701E+02  0.7818608E-02  0.1285106E+00
         -1   -1    0    0    0  501 -0.00000000000E+00  0.00000000000E+00  0.14723064744E+02  0.14723065607E+02  0.50400000000E-02 0.  1.
          1   -1    0    0  501    0  0.00000000000E+00 -0.00000000000E+00 -0.16223657015E+03  0.16223657023E+03  0.50400000000E-02 0. -1.
         23    2    1    2    0    0 -0.35527136788E-14  0.00000000000E+00 -0.14751350540E+03  0.17695963583E+03  0.97747012423E+02 0.  0.
    9000005    2    3    3    0    0 -0.23108417509E+02 -0.28772365709E+02 -0.13175712997E+03  0.13683344295E+03  0.12656318968E+01 0.  0.
         22    1    3    3    0    0  0.23108417509E+02  0.28772365709E+02 -0.15756375434E+02  0.40126192880E+02  0.00000000000E+00 0.  1.
         22    1    4    4    0    0 -0.13555700994E+00 -0.34165152211E+00 -0.11005075566E+01  0.11602664985E+01  0.00000000000E+00 0. -1.
         22    1    4    4    0    0 -0.22972860499E+02 -0.28430714187E+02 -0.13065662241E+03  0.13567317645E+03  0.00000000000E+00 0. -1.
<mgrwt>
<rscale>  0 0.97747012E+02</rscale>
<asrwt>0</asrwt>
<pdfrwt beam="2">  1        1 0.24959471E-01 0.97747012E+02</pdfrwt>
<pdfrwt beam="1">  1       -1 0.22650871E-02 0.97747012E+02</pdfrwt>
<totfact> 0.94249001E+04</totfact>
</mgrwt>
</event>
<event>
 7    1  0.3565607E-009  0.9278290E+02  0.7818608E-02  0.1296249E+00
         -1   -1    0    0    0  501 -0.00000000000E+00  0.00000000000E+00  0.60734293206E+01  0.60734314118E+01  0.50400000000E-02 0.  1.
          1   -1    0    0  501    0  0.00000000000E+00 -0.00000000000E+00 -0.35435766175E+03  0.35435766179E+03  0.50400000000E-02 0. -1.
         23    2    1    2    0    0 -0.35527136788E-14  0.00000000000E+00 -0.34828423243E+03  0.36043109320E+03  0.92782899205E+02 0.  0.
    9000005    2    3    3    0    0  0.29067733613E+02 -0.91543904052E+01 -0.30924594301E+03  0.31090610918E+03  0.10040889283E+02 0.  0.
         22    1    3    3    0    0 -0.29067733613E+02  0.91543904052E+01 -0.39038289426E+02  0.49524984022E+02  0.00000000000E+00 0.  1.
         22    1    4    4    0    0  0.28312245945E+02 -0.62129814365E+01 -0.28518676805E+03  0.28665602571E+03  0.00000000000E+00 0.  1.
         22    1    4    4    0    0  0.75548766782E+00 -0.29414089688E+01 -0.24059174961E+02  0.24250083466E+02  0.00000000000E+00 0.  1.
<mgrwt>
<rscale>  0 0.92782899E+02</rscale>
<asrwt>0</asrwt>
<pdfrwt beam="2">  1        1 0.54516547E-01 0.92782899E+02</pdfrwt>
<pdfrwt beam="1">  1       -1 0.93437419E-03 0.92782899E+02</pdfrwt>
<totfact> 0.12612098E+05</totfact>
</mgrwt>
</event>
<event>
 7    1  0.3565607E-009  0.9585791E+02  0.7818608E-02  0.1289255E+00
          1   -1    0    0  501    0  0.00000000000E+00  0.00000000000E+00  0.65926547538E+02  0.65926547731E+02  0.50400000000E-02 0. -1.
         -1   -1    0    0    0  501 -0.00000000000E+00 -0.00000000000E+00 -0.34844609580E+02  0.34844609945E+02  0.50400000000E-02 0.  1.
         23    2    1    2    0    0 -0.71054273576E-14  0.00000000000E+00  0.31081937958E+02  0.10077115768E+03  0.95857912308E+02 0.  0.
    9000005    2    3    3    0    0  0.46257580788E+02  0.81998798748E+01  0.16137776623E+02  0.51472782770E+02  0.13491394346E+02 0.  0.
         22    1    3    3    0    0 -0.46257580788E+02 -0.81998798748E+01  0.14944161335E+02  0.49298374906E+02  0.00000000000E+00 0. -1.
         22    1    4    4    0    0  0.45488467828E+02  0.70452083528E+01  0.12677415205E+02  0.47744659621E+02  0.00000000000E+00 0. -1.
         22    1    4    4    0    0  0.76911296061E+00  0.11546715220E+01  0.34603614182E+01  0.37281231491E+01  0.00000000000E+00 0. -1.
<mgrwt>
<rscale>  0 0.95857912E+02</rscale>
<asrwt>0</asrwt>
<pdfrwt beam="1">  1        1 0.10142546E-01 0.95857912E+02</pdfrwt>
<pdfrwt beam="2">  1       -1 0.53607093E-02 0.95857912E+02</pdfrwt>
<totfact> 0.85075219E+04</totfact>
</mgrwt>
</event>
<event>
 7    1  0.3565607E-009  0.9210368E+02  0.7818608E-02  0.1297836E+00
         -1   -1    0    0    0  501 -0.00000000000E+00  0.00000000000E+00  0.30170004820E+01  0.30170046917E+01  0.50400000000E-02 0.  1.
          1   -1    0    0  501    0  0.00000000000E+00 -0.00000000000E+00 -0.70294007262E+03  0.70294007264E+03  0.50400000000E-02 0. -1.
         23    2    1    2    0    0  0.71054273576E-14  0.35527136788E-14 -0.69992307214E+03  0.70595707733E+03  0.92103681365E+02 0.  0.
    9000005    2    3    3    0    0  0.33282942613E+02  0.22304636478E+02 -0.52347736317E+03  0.52501968680E+03  0.34453885156E+01 0.  0.
         22    1    3    3    0    0 -0.33282942613E+02 -0.22304636478E+02 -0.17644570897E+03  0.18093739053E+03  0.00000000000E+00 0.  1.
         22    1    4    4    0    0  0.15391930853E+02  0.82737618454E+01 -0.22483765918E+03  0.22551571931E+03  0.00000000000E+00 0. -1.
         22    1    4    4    0    0  0.17891011760E+02  0.14030874633E+02 -0.29863970399E+03  0.29950396749E+03  0.00000000000E+00 0. -1.
<mgrwt>
<rscale>  0 0.92103681E+02</rscale>
<asrwt>0</asrwt>
<pdfrwt beam="2">  1        1 0.10814450E+00 0.92103681E+02</pdfrwt>
<pdfrwt beam="1">  1       -1 0.46415481E-03 0.92103681E+02</pdfrwt>
<totfact> 0.13841409E+05</totfact>
</mgrwt>
</event>
<event>
 7    1  0.3565607E-009  0.9468013E+02  0.7818608E-02  0.1291898E+00
          1   -1    0    0  501    0  0.00000000000E+00  0.00000000000E+00  0.17416746469E+02  0.17416747198E+02  0.50400000000E-02 0. -1.
         -1   -1    0    0    0  501 -0.00000000000E+00 -0.00000000000E+00 -0.12867396118E+03  0.12867396128E+03  0.50400000000E-02 0.  1.
         23    2    1    2    0    0  0.00000000000E+00  0.00000000000E+00 -0.11125721471E+03  0.14609070848E+03  0.94680131379E+02 0.  0.
    9000005    2    3    3    0    0  0.35799997464E+02  0.27597680915E+02 -0.77180147778E+02  0.89482243552E+02  0.26504508900E+01 0.  0.
         22    1    3    3    0    0 -0.35799997464E+02 -0.27597680915E+02 -0.34077066932E+02  0.56608464923E+02  0.00000000000E+00 0. -1.
         22    1    4    4    0    0  0.32477014371E+01  0.35179518940E+01 -0.84082549074E+01  0.96758617570E+01  0.00000000000E+00 0.  1.
         22    1    4    4    0    0  0.32552296027E+02  0.24079729021E+02 -0.68771892870E+02  0.79806381795E+02  0.00000000000E+00 0.  1.
<mgrwt>
<rscale>  0 0.94680131E+02</rscale>
<asrwt>0</asrwt>
<pdfrwt beam="1">  1        1 0.26794996E-02 0.94680131E+02</pdfrwt>
<pdfrwt beam="2">  1       -1 0.19795993E-01 0.94680131E+02</pdfrwt>
<totfact> 0.70186154E+04</totfact>
</mgrwt>
</event>
<event>
 7    1  0.3565607E-009  0.8685657E+02  0.7818608E-02  0.1310648E+00
         -1   -1    0    0    0  501 -0.00000000000E+00  0.00000000000E+00  0.90230826180E+02  0.90230826320E+02  0.50400000000E-02 0.  1.
          1   -1    0    0  501    0  0.00000000000E+00 -0.00000000000E+00 -0.20902123198E+02  0.20902123806E+02  0.50400000000E-02 0. -1.
         23    2    1    2    0    0  0.00000000000E+00  0.00000000000E+00  0.69328702982E+02  0.11113295013E+03  0.86856568817E+02 0.  0.
    9000005    2    3    3    0    0 -0.21071011419E+02 -0.33449972203E+02  0.12135310918E+02  0.41606176446E+02  0.45738369777E+01 0.  0.
         22    1    3    3    0    0  0.21071011419E+02  0.33449972203E+02  0.57193392064E+02  0.69526773680E+02  0.00000000000E+00 0.  1.
         22    1    4    4    0    0 -0.12987902948E+02 -0.16365095188E+02  0.66636147689E+01  0.21929562816E+02  0.00000000000E+00 0. -1.
         22    1    4    4    0    0 -0.80831084714E+01 -0.17084877015E+02  0.54716961491E+01  0.19676613630E+02  0.00000000000E+00 0. -1.
<mgrwt>
<rscale>  0 0.86856569E+02</rscale>
<asrwt>0</asrwt>
<pdfrwt beam="2">  1        1 0.32157113E-02 0.86856569E+02</pdfrwt>
<pdfrwt beam="1">  1       -1 0.13881666E-01 0.86856569E+02</pdfrwt>
<totfact> 0.93894755E+04</totfact>
</mgrwt>
</event>
<event>
 6    1  0.3565607E-009  0.1436919E+03  0.7818608E-02  0.1208446E+00
          1   -1    0    0  501    0  0.00000000000E+00  0.00000000000E+00  0.57424490773E+01  0.57424512891E+01  0.50400000000E-02 0. -1.
         -1   -1    0    0    0  501 -0.00000000000E+00 -0.00000000000E+00 -0.89889109614E+03  0.89889109616E+03  0.50400000000E-02 0.  1.
    9000005    2    1    2    0    0  0.30380240063E+02  0.77097004842E+01 -0.85308837334E+03  0.85376878559E+03  0.13377894112E+02 0.  0.
         22    1    1    2    0    0 -0.30380240063E+02 -0.77097004842E+01 -0.40060273727E+02  0.50864761858E+02  0.00000000000E+00 0. -1.
         22    1    3    3    0    0  0.11559042167E+02 -0.28528572443E+01 -0.23166486984E+03  0.23197060626E+03  0.00000000000E+00 0. -1.
         22    1    3    3    0    0  0.18821197896E+02  0.10562557728E+02 -0.62142350350E+03  0.62179817933E+03  0.00000000000E+00 0. -1.
<mgrwt>
<rscale>  0 0.14369186E+03</rscale>
<asrwt>0</asrwt>
<pdfrwt beam="1">  1        1 0.88345459E-03 0.14369186E+03</pdfrwt>
<pdfrwt beam="2">  1       -1 0.13829083E+00 0.14369186E+03</pdfrwt>
<totfact> 0.85784548E+03</totfact>
</mgrwt>
</event>
<event>
 7    1  0.3565607E-009  0.9087636E+02  0.7818608E-02  0.1300743E+00
          1   -1    0    0  501    0  0.00000000000E+00  0.00000000000E+00  0.32105245028E+02  0.32105245424E+02  0.50400000000E-02 0. -1.
         -1   -1    0    0    0  501 -0.00000000000E+00 -0.00000000000E+00 -0.64308125521E+02  0.64308125719E+02  0.50400000000E-02 0.  1.
         23    2    1    2    0    0  0.35527136788E-14  0.35527136788E-14 -0.32202880493E+02  0.96413371142E+02  0.90876358988E+02 0.  0.
    9000005    2    3    3    0    0 -0.25205617895E+02 -0.22602587436E+02  0.13705005983E+02  0.39371858426E+02  0.14700881426E+02 0.  0.
         22    1    3    3    0    0  0.25205617895E+02  0.22602587436E+02 -0.45907886476E+02  0.57041512716E+02  0.00000000000E+00 0.  1.
         22    1    4    4    0    0 -0.11940162803E+02 -0.54985289588E+01  0.11762255694E+02  0.17639500205E+02  0.00000000000E+00 0. -1.
         22    1    4    4    0    0 -0.13265455091E+02 -0.17104058477E+02  0.19427502895E+01  0.21732358221E+02  0.00000000000E+00 0. -1.
<mgrwt>
<rscale>  0 0.90876359E+02</rscale>
<asrwt>0</asrwt>
<pdfrwt beam="1">  1        1 0.49392685E-02 0.90876359E+02</pdfrwt>
<pdfrwt beam="2">  1       -1 0.98935578E-02 0.90876359E+02</pdfrwt>
<totfact> 0.88459944E+04</totfact>
</mgrwt>
</event>
<event>
 7    1  0.3565607E-009  0.7834468E+02  0.7818608E-02  0.1333816E+00
          1   -1    0    0  501    0  0.00000000000E+00  0.00000000000E+00  0.23247193821E+02  0.23247194368E+02  0.50400000000E-02 0. -1.
         -1   -1    0    0    0  501 -0.00000000000E+00 -0.00000000000E+00 -0.66006771141E+02  0.66006771334E+02  0.50400000000E-02 0.  1.
         23    2    1    2    0    0  0.00000000000E+00 -0.44408920985E-15 -0.42759577320E+02  0.89253965702E+02  0.78344680361E+02 0.  0.
    9000005    2    3    3    0    0 -0.33523651697E+02  0.29399971792E+01 -0.42689934525E+02  0.55601571186E+02  0.11688686925E+02 0.  0.
         22    1    3    3    0    0  0.33523651697E+02 -0.29399971792E+01 -0.69642794829E-01  0.33652394516E+02  0.00000000000E+00 0.  1.
         22    1    4    4    0    0 -0.23103329801E+02 -0.11599152287E+01 -0.35232214454E+02  0.42147576284E+02  0.00000000000E+00 0.  1.
         22    1    4    4    0    0 -0.10420321896E+02  0.40999124079E+01 -0.74577200709E+01  0.13453994902E+02  0.00000000000E+00 0.  1.
<mgrwt>
<rscale>  0 0.78344680E+02</rscale>
<asrwt>0</asrwt>
<pdfrwt beam="1">  1        1 0.35764914E-02 0.78344680E+02</pdfrwt>
<pdfrwt beam="2">  1       -1 0.10154888E-01 0.78344680E+02</pdfrwt>
<totfact> 0.12840909E+05</totfact>
</mgrwt>
</event>
<event>
 7    1  0.3565607E-009  0.9221958E+02  0.7818608E-02  0.1297564E+00
         -1   -1    0    0    0  501 -0.00000000000E+00  0.00000000000E+00  0.68186093065E+02  0.68186093251E+02  0.50400000000E-02 0.  1.
          1   -1    0    0  501    0  0.00000000000E+00 -0.00000000000E+00 -0.31181030388E+02  0.31181030795E+02  0.50400000000E-02 0. -1.
         23    2    1    2    0    0  0.00000000000E+00  0.00000000000E+00  0.37005062677E+02  0.99367124046E+02  0.92219578602E+02 0.  0.
    9000005    2    3    3    0    0  0.19807217997E+02 -0.70629813891E+01 -0.24294532021E+02  0.34560859681E+02  0.12728595556E+02 0.  0.
         22    1    3    3    0    0 -0.19807217997E+02  0.70629813891E+01  0.61299594698E+02  0.64806264366E+02  0.00000000000E+00 0.  1.
         22    1    4    4    0    0  0.15701719761E+01  0.24279941313E+01 -0.21609492366E+00  0.28995331611E+01  0.00000000000E+00 0. -1.
         22    1    4    4    0    0  0.18237046021E+02 -0.94909755204E+01 -0.24078437098E+02  0.31661326519E+02  0.00000000000E+00 0. -1.
<mgrwt>
<rscale>  0 0.92219579E+02</rscale>
<asrwt>0</asrwt>
<pdfrwt beam="2">  1        1 0.47970817E-02 0.92219579E+02</pdfrwt>
<pdfrwt beam="1">  1       -1 0.10490168E-01 0.92219579E+02</pdfrwt>
<totfact> 0.84422384E+04</totfact>
</mgrwt>
</event>
<event>
 7    1  0.3565607E-009  0.8947825E+02  0.7818608E-02  0.1304120E+00
          1   -1    0    0  501    0  0.00000000000E+00  0.00000000000E+00  0.31851064930E+03  0.31851064934E+03  0.50400000000E-02 0. -1.
         -1   -1    0    0    0  501 -0.00000000000E+00 -0.00000000000E+00 -0.62842142544E+01  0.62842162755E+01  0.50400000000E-02 0.  1.
         23    2    1    2    0    0  0.00000000000E+00  0.00000000000E+00  0.31222643504E+03  0.32479486561E+03  0.89478254279E+02 0.  0.
    9000005    2    3    3    0    0  0.24485527282E+02 -0.35514550435E+02  0.18856515825E+03  0.19382564894E+03  0.12277578784E+02 0.  0.
         22    1    3    3    0    0 -0.24485527282E+02  0.35514550435E+02  0.12366127679E+03  0.13096921668E+03  0.00000000000E+00 0.  1.
         22    1    4    4    0    0  0.93982355029E+01 -0.24069641189E+02  0.11426673933E+03  0.11715187653E+03  0.00000000000E+00 0.  1.
         22    1    4    4    0    0  0.15087291779E+02 -0.11444909245E+02  0.74298418916E+02  0.76673772401E+02  0.00000000000E+00 0.  1.
<mgrwt>
<rscale>  0 0.89478254E+02</rscale>
<asrwt>0</asrwt>
<pdfrwt beam="1">  1        1 0.49001620E-01 0.89478254E+02</pdfrwt>
<pdfrwt beam="2">  1       -1 0.96680272E-03 0.89478254E+02</pdfrwt>
<totfact> 0.13622145E+05</totfact>
</mgrwt>
</event>
<event>
 7    1  0.3565607E-009  0.9329610E+02  0.7818608E-02  0.1295060E+00
          1   -1    0    0  501    0  0.00000000000E+00  0.00000000000E+00  0.16711224559E+03  0.16711224567E+03  0.50400000000E-02 0. -1.
         -1   -1    0    0    0  501 -0.00000000000E+00 -0.00000000000E+00 -0.13021429481E+02  0.13021430457E+02  0.50400000000E-02 0.  1.
         23    2    1    2    0    0  0.00000000000E+00  0.35527136788E-14  0.15409081611E+03  0.18013367612E+03  0.93296096726E+02 0.  0.
    9000005    2    3    3    0    0 -0.65569254923E+01 -0.29091527894E+02  0.14626405984E+03  0.14930238713E+03  0.29525132662E+01 0.  0.
         22    1    3    3    0    0  0.65569254923E+01  0.29091527894E+02  0.78267562645E+01  0.30831288989E+02  0.00000000000E+00 0.  1.
         22    1    4    4    0    0 -0.11521927736E+01 -0.92914680702E+01  0.51024600203E+02  0.51876475911E+02  0.00000000000E+00 0.  1.
         22    1    4    4    0    0 -0.54047327186E+01 -0.19800059823E+02  0.95239459641E+02  0.97425911222E+02  0.00000000000E+00 0.  1.
<mgrwt>
<rscale>  0 0.93296097E+02</rscale>
<asrwt>0</asrwt>
<pdfrwt beam="1">  1        1 0.25709575E-01 0.93296097E+02</pdfrwt>
<pdfrwt beam="2">  1       -1 0.20032970E-02 0.93296097E+02</pdfrwt>
<totfact> 0.10753228E+05</totfact>
</mgrwt>
</event>
<event>
 7    1  0.3565607E-009  0.9202258E+02  0.7818608E-02  0.1298026E+00
         -1   -1    0    0    0  501 -0.00000000000E+00  0.00000000000E+00  0.40754118401E+01  0.40754149565E+01  0.50400000000E-02 0.  1.
          1   -1    0    0  501    0  0.00000000000E+00 -0.00000000000E+00 -0.51946597721E+03  0.51946597724E+03  0.50400000000E-02 0. -1.
         23    2    1    2    0    0  0.00000000000E+00  0.00000000000E+00 -0.51539056537E+03  0.52354139220E+03  0.92022575844E+02 0.  0.
    9000005    2    3    3    0    0 -0.24495869356E+02  0.18471305961E+02 -0.45234187269E+03  0.45342452969E+03  0.62767483454E+01 0.  0.
         22    1    3    3    0    0  0.24495869356E+02 -0.18471305961E+02 -0.63048692681E+02  0.70116862510E+02  0.00000000000E+00 0.  1.
         22    1    4    4    0    0 -0.24687136430E+02  0.17373177150E+02 -0.43363542034E+03  0.43468489709E+03  0.00000000000E+00 0. -1.
         22    1    4    4    0    0  0.19126707466E+00  0.10981288105E+01 -0.18706452354E+02  0.18739632591E+02  0.00000000000E+00 0. -1.
<mgrwt>
<rscale>  0 0.92022576E+02</rscale>
<asrwt>0</asrwt>
<pdfrwt beam="2">  1        1 0.79917790E-01 0.92022576E+02</pdfrwt>
<pdfrwt beam="1">  1       -1 0.62698709E-03 0.92022576E+02</pdfrwt>
<totfact> 0.13648439E+05</totfact>
</mgrwt>
</event>
<event>
 7    1  0.3565607E-009  0.9279609E+02  0.7818608E-02  0.1296218E+00
         -1   -1    0    0    0  501 -0.00000000000E+00  0.00000000000E+00  0.13522417565E+02  0.13522418504E+02  0.50400000000E-02 0.  1.
          1   -1    0    0  501    0  0.00000000000E+00 -0.00000000000E+00 -0.15920072466E+03  0.15920072474E+03  0.50400000000E-02 0. -1.
         23    2    1    2    0    0  0.00000000000E+00  0.35527136788E-14 -0.14567830709E+03  0.17272314324E+03  0.92796093958E+02 0.  0.
    9000005    2    3    3    0    0  0.25030115077E+02 -0.28014916377E+02 -0.12225780315E+03  0.12845281226E+03  0.11908498897E+02 0.  0.
         22    1    3    3    0    0 -0.25030115077E+02  0.28014916377E+02 -0.23420503944E+02  0.44270330983E+02  0.00000000000E+00 0.  1.
         22    1    4    4    0    0  0.24887866305E+02 -0.24416182120E+02 -0.11696647399E+03  0.12205208674E+03  0.00000000000E+00 0. -1.
         22    1    4    4    0    0  0.14224877229E+00 -0.35987342571E+01 -0.52913291555E+01  0.64007255212E+01  0.00000000000E+00 0. -1.
<mgrwt>
<rscale>  0 0.92796094E+02</rscale>
<asrwt>0</asrwt>
<pdfrwt beam="2">  1        1 0.24492418E-01 0.92796094E+02</pdfrwt>
<pdfrwt beam="1">  1       -1 0.20803721E-02 0.92796094E+02</pdfrwt>
<totfact> 0.10811330E+05</totfact>
</mgrwt>
</event>
<event>
 7    1  0.3565607E-009  0.8990049E+02  0.7818608E-02  0.1303093E+00
         -1   -1    0    0    0  501 -0.00000000000E+00  0.00000000000E+00  0.20729016272E+02  0.20729016884E+02  0.50400000000E-02 0.  1.
          1   -1    0    0  501    0  0.00000000000E+00 -0.00000000000E+00 -0.97473249991E+02  0.97473250122E+02  0.50400000000E-02 0. -1.
         23    2    1    2    0    0  0.00000000000E+00  0.22204460493E-15 -0.76744233720E+02  0.11820226701E+03  0.89900492302E+02 0.  0.
    9000005    2    3    3    0    0  0.44553992918E+02  0.88524280749E+00 -0.39224753829E+02  0.59948054188E+02  0.83274214633E+01 0.  0.
         22    1    3    3    0    0 -0.44553992918E+02 -0.88524280749E+00 -0.37519479890E+02  0.58254212818E+02  0.00000000000E+00 0.  1.
         22    1    4    4    0    0  0.38961498939E+02 -0.13003431005E+01 -0.36308821514E+02  0.53273068350E+02  0.00000000000E+00 0. -1.
         22    1    4    4    0    0  0.55924939791E+01  0.21855859080E+01 -0.29159323156E+01  0.66749858380E+01  0.00000000000E+00 0. -1.
<mgrwt>
<rscale>  0 0.89900492E+02</rscale>
<asrwt>0</asrwt>
<pdfrwt beam="2">  1        1 0.14995884E-01 0.89900492E+02</pdfrwt>
<pdfrwt beam="1">  1       -1 0.31890796E-02 0.89900492E+02</pdfrwt>
<totfact> 0.10808074E+05</totfact>
</mgrwt>
</event>
<event>
 7    1  0.3565607E-009  0.9058133E+02  0.7818608E-02  0.1301450E+00
         -1   -1    0    0    0  501 -0.00000000000E+00  0.00000000000E+00  0.33770507064E+03  0.33770507067E+03  0.50400000000E-02 0.  1.
          1   -1    0    0  501    0  0.00000000000E+00 -0.00000000000E+00 -0.60740690450E+01  0.60740711360E+01  0.50400000000E-02 0. -1.
         23    2    1    2    0    0  0.35527136788E-14  0.00000000000E+00  0.33163100159E+03  0.34377914181E+03  0.90581328800E+02 0.  0.
    9000005    2    3    3    0    0 -0.18421391719E+02 -0.60581099182E+01  0.32055425734E+03  0.32144659534E+03  0.14029732308E+02 0.  0.
         22    1    3    3    0    0  0.18421391719E+02  0.60581099182E+01  0.11076744254E+02  0.22332546472E+02  0.00000000000E+00 0. -1.
         22    1    4    4    0    0 -0.10269031152E+02 -0.80126973872E+01  0.25858535872E+03  0.25891319794E+03  0.00000000000E+00 0. -1.
         22    1    4    4    0    0 -0.81523605678E+01  0.19545874690E+01  0.61968898616E+02  0.62533397402E+02  0.00000000000E+00 0. -1.
<mgrwt>
<rscale>  0 0.90581329E+02</rscale>
<asrwt>0</asrwt>
<pdfrwt beam="2">  1        1 0.93447219E-03 0.90581329E+02</pdfrwt>
<pdfrwt beam="1">  1       -1 0.51954634E-01 0.90581329E+02</pdfrwt>
<totfact> 0.58687768E+04</totfact>
</mgrwt>
</event>
<event>
 7    1  0.3565607E-009  0.7127279E+02  0.7818608E-02  0.1355818E+00
         -1   -1    0    0    0  501 -0.00000000000E+00  0.00000000000E+00  0.92180278458E+02  0.92180278596E+02  0.50400000000E-02 0. -1.
          1   -1    0    0  501    0  0.00000000000E+00 -0.00000000000E+00 -0.13776837767E+02  0.13776838688E+02  0.50400000000E-02 0.  1.
         23    2    1    2    0    0  0.35527136788E-14  0.00000000000E+00  0.78403440692E+02  0.10595711728E+03  0.71272794185E+02 0.  0.
    9000005    2    3    3    0    0  0.24366102459E+02 -0.16151835520E+02  0.68504029638E+02  0.75093107842E+02  0.95699544945E+01 0.  0.
         22    1    3    3    0    0 -0.24366102459E+02  0.16151835520E+02  0.98994110540E+01  0.30864009443E+02  0.00000000000E+00 0.  1.
         22    1    4    4    0    0  0.20554475425E+02 -0.13826593489E+02  0.64508715023E+02  0.69101631395E+02  0.00000000000E+00 0. -1.
         22    1    4    4    0    0  0.38116270333E+01 -0.23252420302E+01  0.39953146149E+01  0.59914764468E+01  0.00000000000E+00 0. -1.
<mgrwt>
<rscale>  0 0.71272794E+02</rscale>
<asrwt>0</asrwt>
<pdfrwt beam="2">  1        1 0.21195136E-02 0.71272794E+02</pdfrwt>
<pdfrwt beam="1">  1       -1 0.14181582E-01 0.71272794E+02</pdfrwt>
<totfact> 0.15499893E+05</totfact>
</mgrwt>
</event>
<event>
 7    1  0.3565607E-009  0.9117190E+02  0.7818608E-02  0.1300038E+00
          1   -1    0    0  501    0  0.00000000000E+00  0.00000000000E+00  0.35046268614E+03  0.35046268617E+03  0.50400000000E-02 0. -1.
         -1   -1    0    0    0  501 -0.00000000000E+00 -0.00000000000E+00 -0.59295281417E+01  0.59295302836E+01  0.50400000000E-02 0.  1.
         23    2    1    2    0    0  0.00000000000E+00  0.00000000000E+00  0.34453315799E+03  0.35639221645E+03  0.91171898043E+02 0.  0.
    9000005    2    3    3    0    0 -0.15255204574E+02  0.37937094524E+02  0.24931728065E+03  0.25276785781E+03  0.77806876604E+01 0.  0.
         22    1    3    3    0    0  0.15255204574E+02 -0.37937094524E+02  0.95215877340E+02  0.10362435865E+03  0.00000000000E+00 0.  1.
         22    1    4    4    0    0 -0.89889911919E+01  0.14055064836E+02  0.87277785635E+02  0.88858081656E+02  0.00000000000E+00 0.  1.
         22    1    4    4    0    0 -0.62662133822E+01  0.23882029688E+02  0.16203949502E+03  0.16390977615E+03  0.00000000000E+00 0.  1.
<mgrwt>
<rscale>  0 0.91171898E+02</rscale>
<asrwt>0</asrwt>
<pdfrwt beam="1">  1        1 0.53917338E-01 0.91171898E+02</pdfrwt>
<pdfrwt beam="2">  1       -1 0.91223524E-03 0.91171898E+02</pdfrwt>
<totfact> 0.13188261E+05</totfact>
</mgrwt>
</event>
<event>
 7    1  0.3565607E-009  0.9050954E+02  0.7818608E-02  0.1301622E+00
         -1   -1    0    0    0  501 -0.00000000000E+00  0.00000000000E+00  0.16550135159E+03  0.16550135166E+03  0.50400000000E-02 0.  1.
          1   -1    0    0  501    0  0.00000000000E+00 -0.00000000000E+00 -0.12374486276E+02  0.12374487303E+02  0.50400000000E-02 0. -1.
         23    2    1    2    0    0  0.00000000000E+00  0.00000000000E+00  0.15312686531E+03  0.17787583897E+03  0.90509542083E+02 0.  0.
    9000005    2    3    3    0    0 -0.12530111480E+02  0.42866606760E+02  0.63954360139E+02  0.78144773860E+02  0.46792982364E+01 0.  0.
         22    1    3    3    0    0  0.12530111480E+02 -0.42866606760E+02  0.89172505170E+02  0.99731065106E+02  0.00000000000E+00 0.  1.
         22    1    4    4    0    0 -0.23535064470E+01  0.36779370049E+01  0.51889294333E+01  0.67816813455E+01  0.00000000000E+00 0.  1.
         22    1    4    4    0    0 -0.10176605033E+02  0.39188669755E+02  0.58765430706E+02  0.71363092514E+02  0.00000000000E+00 0.  1.
<mgrwt>
<rscale>  0 0.90509542E+02</rscale>
<asrwt>0</asrwt>
<pdfrwt beam="2">  1        1 0.19037673E-02 0.90509542E+02</pdfrwt>
<pdfrwt beam="1">  1       -1 0.25461746E-01 0.90509542E+02</pdfrwt>
<totfact> 0.74437261E+04</totfact>
</mgrwt>
</event>
<event>
 7    1  0.3565607E-009  0.1273744E+03  0.7818608E-02  0.1231405E+00
         -1   -1    0    0    0  501 -0.00000000000E+00  0.00000000000E+00  0.15127947707E+02  0.15127948546E+02  0.50400000000E-02 0.  1.
          1   -1    0    0  501    0  0.00000000000E+00 -0.00000000000E+00 -0.26811675731E+03  0.26811675736E+03  0.50400000000E-02 0. -1.
         23    2    1    2    0    0 -0.71054273576E-14  0.00000000000E+00 -0.25298880961E+03  0.28324470591E+03  0.12737435236E+03 0.  0.
    9000005    2    3    3    0    0  0.48774979509E+02  0.14640712299E+02 -0.21140367013E+03  0.21749766865E+03  0.45138721241E+01 0.  0.
         22    1    3    3    0    0 -0.48774979509E+02 -0.14640712299E+02 -0.41585139478E+02  0.65747037257E+02  0.00000000000E+00 0.  1.
         22    1    4    4    0    0  0.84971712282E+01  0.24450265736E+01 -0.29958784457E+02  0.31236338454E+02  0.00000000000E+00 0. -1.
         22    1    4    4    0    0  0.40277808281E+02  0.12195685725E+02 -0.18144488567E+03  0.18626133020E+03  0.00000000000E+00 0. -1.
<mgrwt>
<rscale>  0 0.12737435E+03</rscale>
<asrwt>0</asrwt>
<pdfrwt beam="2">  1        1 0.41248728E-01 0.12737435E+03</pdfrwt>
<pdfrwt beam="1">  1       -1 0.23273768E-02 0.12737435E+03</pdfrwt>
<totfact> 0.50526256E+04</totfact>
</mgrwt>
</event>
<event>
 7    1  0.3565607E-009  0.9254232E+02  0.7818608E-02  0.1296809E+00
          1   -1    0    0  501    0  0.00000000000E+00  0.00000000000E+00  0.19879858890E+02  0.19879859529E+02  0.50400000000E-02 0. -1.
         -1   -1    0    0    0  501 -0.00000000000E+00 -0.00000000000E+00 -0.10769796071E+03  0.10769796083E+03  0.50400000000E-02 0.  1.
         23    2    1    2    0    0  0.17763568394E-14  0.00000000000E+00 -0.87818101819E+02  0.12757782035E+03  0.92542321343E+02 0.  0.
    9000005    2    3    3    0    0  0.12825988638E+02 -0.40680524025E+02 -0.24227906669E+02  0.51006781844E+02  0.13974595272E+02 0.  0.
         22    1    3    3    0    0 -0.12825988638E+02  0.40680524025E+02 -0.63590195150E+02  0.76571038511E+02  0.00000000000E+00 0.  1.
         22    1    4    4    0    0  0.28676958479E+01 -0.12631341857E+00 -0.30364804842E+01  0.41784983291E+01  0.00000000000E+00 0. -1.
         22    1    4    4    0    0  0.99582927904E+01 -0.40554210606E+02 -0.21191426185E+02  0.46828283515E+02  0.00000000000E+00 0. -1.
<mgrwt>
<rscale>  0 0.92542321E+02</rscale>
<asrwt>0</asrwt>
<pdfrwt beam="1">  1        1 0.30584400E-02 0.92542321E+02</pdfrwt>
<pdfrwt beam="2">  1       -1 0.16568917E-01 0.92542321E+02</pdfrwt>
<totfact> 0.77213695E+04</totfact>
</mgrwt>
</event>
<event>
 7    1  0.3565607E-009  0.9097968E+02  0.7818608E-02  0.1300496E+00
          1   -1    0    0  501    0  0.00000000000E+00  0.00000000000E+00  0.10863512315E+03  0.10863512327E+03  0.50400000000E-02 0. -1.
         -1   -1    0    0    0  501 -0.00000000000E+00 -0.00000000000E+00 -0.19048403891E+02  0.19048404558E+02  0.50400000000E-02 0.  1.
         23    2    1    2    0    0 -0.71054273576E-14  0.00000000000E+00  0.89586719261E+02  0.12768352783E+03  0.90979684604E+02 0.  0.
    9000005    2    3    3    0    0  0.42464644216E+02 -0.42177701346E+01  0.64062379790E+02  0.77959011754E+02  0.12352465991E+02 0.  0.
         22    1    3    3    0    0 -0.42464644216E+02  0.42177701346E+01  0.25524339471E+02  0.49724516074E+02  0.00000000000E+00 0. -1.
         22    1    4    4    0    0  0.33924017955E+02 -0.32252525447E+01  0.40803079584E+02  0.53161382146E+02  0.00000000000E+00 0.  1.
         22    1    4    4    0    0  0.85406262615E+01 -0.99251758981E+00  0.23259300206E+02  0.24797629608E+02  0.00000000000E+00 0.  1.
<mgrwt>
<rscale>  0 0.90979685E+02</rscale>
<asrwt>0</asrwt>
<pdfrwt beam="1">  1        1 0.16713096E-01 0.90979685E+02</pdfrwt>
<pdfrwt beam="2">  1       -1 0.29305238E-02 0.90979685E+02</pdfrwt>
<totfact> 0.10654049E+05</totfact>
</mgrwt>
</event>
<event>
 7    1  0.3565607E-009  0.9038138E+02  0.7818608E-02  0.1301931E+00
         -1   -1    0    0    0  501 -0.00000000000E+00  0.00000000000E+00  0.59374134564E+03  0.59374134567E+03  0.50400000000E-02 0.  1.
          1   -1    0    0  501    0  0.00000000000E+00 -0.00000000000E+00 -0.34395403406E+01  0.34395440332E+01  0.50400000000E-02 0. -1.
         23    2    1    2    0    0  0.00000000000E+00  0.00000000000E+00  0.59030180530E+03  0.59718088970E+03  0.90381379037E+02 0.  0.
    9000005    2    3    3    0    0 -0.18980856164E+02  0.34973045197E+02  0.43378101069E+03  0.43568121187E+03  0.82925480819E+01 0.  0.
         22    1    3    3    0    0  0.18980856164E+02 -0.34973045197E+02  0.15652079461E+03  0.16149967783E+03  0.00000000000E+00 0. -1.
         22    1    4    4    0    0 -0.12697172702E+02  0.14749562390E+02  0.21192780307E+03  0.21281955150E+03  0.00000000000E+00 0. -1.
         22    1    4    4    0    0 -0.62836834614E+01  0.20223482806E+02  0.22185320762E+03  0.22286166038E+03  0.00000000000E+00 0. -1.
<mgrwt>
<rscale>  0 0.90381379E+02</rscale>
<asrwt>0</asrwt>
<pdfrwt beam="2">  1        1 0.52916071E-03 0.90381379E+02</pdfrwt>
<pdfrwt beam="1">  1       -1 0.91344758E-01 0.90381379E+02</pdfrwt>
<totfact> 0.42909726E+04</totfact>
</mgrwt>
</event>
<event>
 7    1  0.3565607E-009  0.9370166E+02  0.7818608E-02  0.1294127E+00
          1   -1    0    0  501    0  0.00000000000E+00  0.00000000000E+00  0.28359692952E+02  0.28359693400E+02  0.50400000000E-02 0. -1.
         -1   -1    0    0    0  501 -0.00000000000E+00 -0.00000000000E+00 -0.77398595496E+02  0.77398595660E+02  0.50400000000E-02 0.  1.
         23    2    1    2    0    0  0.00000000000E+00  0.00000000000E+00 -0.49038902544E+02  0.10575828906E+03  0.93701663498E+02 0.  0.
    9000005    2    3    3    0    0 -0.39595323056E+02 -0.21664356237E+02 -0.34294173471E+02  0.58276282211E+02  0.13524082046E+02 0.  0.
         22    1    3    3    0    0  0.39595323056E+02  0.21664356237E+02 -0.14744729072E+02  0.47482006850E+02  0.00000000000E+00 0. -1.
         22    1    4    4    0    0 -0.35891771100E+02 -0.20556970686E+02 -0.35192570447E+02  0.54307690902E+02  0.00000000000E+00 0. -1.
         22    1    4    4    0    0 -0.37035519560E+01 -0.11073855506E+01  0.89839697555E+00  0.39685913085E+01  0.00000000000E+00 0. -1.
<mgrwt>
<rscale>  0 0.93701663E+02</rscale>
<asrwt>0</asrwt>
<pdfrwt beam="1">  1        1 0.43630297E-02 0.93701663E+02</pdfrwt>
<pdfrwt beam="2">  1       -1 0.11907476E-01 0.93701663E+02</pdfrwt>
<totfact> 0.79372159E+04</totfact>
</mgrwt>
</event>
<event>
 7    1  0.3565607E-009  0.8651224E+02  0.7818608E-02  0.1311525E+00
          1   -1    0    0  501    0  0.00000000000E+00  0.00000000000E+00  0.16533354952E+02  0.16533355720E+02  0.50400000000E-02 0. -1.
         -1   -1    0    0    0  501 -0.00000000000E+00 -0.00000000000E+00 -0.11317073423E+03  0.11317073434E+03  0.50400000000E-02 0.  1.
         23    2    1    2    0    0  0.00000000000E+00 -0.35527136788E-14 -0.96637379278E+02  0.12970409006E+03  0.86512241360E+02 0.  0.
    9000005    2    3    3    0    0 -0.22361094185E+02 -0.31158966439E+02 -0.75708622767E+02  0.86012986027E+02  0.13983507473E+02 0.  0.
         22    1    3    3    0    0  0.22361094185E+02  0.31158966439E+02 -0.20928756512E+02  0.43691104036E+02  0.00000000000E+00 0. -1.
         22    1    4    4    0    0  0.19358682899E+01 -0.13254722449E+01 -0.42940161241E+01  0.48931622885E+01  0.00000000000E+00 0. -1.
         22    1    4    4    0    0 -0.24296962475E+02 -0.29833494194E+02 -0.71414606643E+02  0.81119823738E+02  0.00000000000E+00 0. -1.
<mgrwt>
<rscale>  0 0.86512241E+02</rscale>
<asrwt>0</asrwt>
<pdfrwt beam="1">  1        1 0.25435932E-02 0.86512241E+02</pdfrwt>
<pdfrwt beam="2">  1       -1 0.17410882E-01 0.86512241E+02</pdfrwt>
<totfact> 0.90978746E+04</totfact>
</mgrwt>
</event>
<event>
 7    1  0.3565607E-009  0.9390234E+02  0.7818608E-02  0.1293668E+00
         -1   -1    0    0    0  501 -0.00000000000E+00  0.00000000000E+00  0.25297035169E+01  0.25297085376E+01  0.50400000000E-02 0.  1.
          1   -1    0    0  501    0  0.00000000000E+00 -0.00000000000E+00 -0.87141039662E+03  0.87141039664E+03  0.50400000000E-02 0. -1.
         23    2    1    2    0    0  0.00000000000E+00 -0.17763568394E-14 -0.86888069311E+03  0.87394010518E+03  0.93902335333E+02 0.  0.
    9000005    2    3    3    0    0 -0.28587320955E+02 -0.14004179799E+02 -0.75240146794E+03  0.75318927965E+03  0.13144201785E+02 0.  0.
         22    1    3    3    0    0  0.28587320955E+02  0.14004179799E+02 -0.11647922517E+03  0.12075082553E+03  0.00000000000E+00 0.  1.
         22    1    4    4    0    0 -0.10889138697E+02  0.53978166709E+00 -0.18025363176E+03  0.18058304590E+03  0.00000000000E+00 0.  1.
         22    1    4    4    0    0 -0.17698182258E+02 -0.14543961466E+02 -0.57214783619E+03  0.57260623374E+03  0.00000000000E+00 0.  1.
<mgrwt>
<rscale>  0 0.93902335E+02</rscale>
<asrwt>0</asrwt>
<pdfrwt beam="2">  1        1 0.13406290E+00 0.93902335E+02</pdfrwt>
<pdfrwt beam="1">  1       -1 0.38918624E-03 0.93902335E+02</pdfrwt>
<totfact> 0.12940346E+05</totfact>
</mgrwt>
</event>
<event>
 7    1  0.3565607E-009  0.9650040E+02  0.7818608E-02  0.1287832E+00
         -1   -1    0    0    0  501 -0.00000000000E+00  0.00000000000E+00  0.16744589233E+02  0.16744589992E+02  0.50400000000E-02 0.  1.
          1   -1    0    0  501    0  0.00000000000E+00 -0.00000000000E+00 -0.13903486413E+03  0.13903486422E+03  0.50400000000E-02 0. -1.
         23    2    1    2    0    0  0.71054273576E-14  0.00000000000E+00 -0.12229027490E+03  0.15577945421E+03  0.96500399069E+02 0.  0.
    9000005    2    3    3    0    0  0.45505956028E+02 -0.92539500554E+01 -0.80959359012E+02  0.93612966187E+02  0.72485861355E+01 0.  0.
         22    1    3    3    0    0 -0.45505956028E+02  0.92539500554E+01 -0.41330915883E+02  0.62166488025E+02  0.00000000000E+00 0.  1.
         22    1    4    4    0    0  0.13193958300E+02 -0.59007745571E+01 -0.22771293066E+02  0.26970937394E+02  0.00000000000E+00 0. -1.
         22    1    4    4    0    0  0.32311997728E+02 -0.33531754983E+01 -0.58188065946E+02  0.66642028793E+02  0.00000000000E+00 0. -1.
<mgrwt>
<rscale>  0 0.96500399E+02</rscale>
<asrwt>0</asrwt>
<pdfrwt beam="2">  1        1 0.21389978E-01 0.96500399E+02</pdfrwt>
<pdfrwt beam="1">  1       -1 0.25760908E-02 0.96500399E+02</pdfrwt>
<totfact> 0.94808345E+04</totfact>
</mgrwt>
</event>
<event>
 7    1  0.3565607E-009  0.9294559E+02  0.7818608E-02  0.1295871E+00
         -1   -1    0    0    0  501 -0.00000000000E+00  0.00000000000E+00  0.18244866698E+02  0.18244867394E+02  0.50400000000E-02 0.  1.
          1   -1    0    0  501    0  0.00000000000E+00 -0.00000000000E+00 -0.11837414811E+03  0.11837414821E+03  0.50400000000E-02 0. -1.
         23    2    1    2    0    0  0.00000000000E+00  0.17763568394E-14 -0.10012928141E+03  0.13661901561E+03  0.92945588546E+02 0.  0.
    9000005    2    3    3    0    0 -0.32170046449E+02 -0.10917062725E+02 -0.96132813304E+02  0.10241278950E+03  0.96315893105E+01 0.  0.
         22    1    3    3    0    0  0.32170046449E+02  0.10917062725E+02 -0.39964681036E+01  0.34206226105E+02  0.00000000000E+00 0.  1.
         22    1    4    4    0    0 -0.21448695444E+02 -0.10872370414E+02 -0.57646047498E+02  0.62460561692E+02  0.00000000000E+00 0.  1.
         22    1    4    4    0    0 -0.10721351005E+02 -0.44692311073E-01 -0.38486765806E+02  0.39952227810E+02  0.00000000000E+00 0.  1.
<mgrwt>
<rscale>  0 0.92945589E+02</rscale>
<asrwt>0</asrwt>
<pdfrwt beam="2">  1        1 0.18211407E-01 0.92945589E+02</pdfrwt>
<pdfrwt beam="1">  1       -1 0.28069027E-02 0.92945589E+02</pdfrwt>
<totfact> 0.10201383E+05</totfact>
</mgrwt>
</event>
<event>
 7    1  0.3565607E-009  0.7821519E+02  0.7818608E-02  0.1334194E+00
          1   -1    0    0  501    0  0.00000000000E+00  0.00000000000E+00  0.24745210203E+02  0.24745210717E+02  0.50400000000E-02 0. -1.
         -1   -1    0    0    0  501 -0.00000000000E+00 -0.00000000000E+00 -0.61806053602E+02  0.61806053808E+02  0.50400000000E-02 0.  1.
         23    2    1    2    0    0  0.00000000000E+00  0.17763568394E-14 -0.37060843399E+02  0.86551264524E+02  0.78215185721E+02 0.  0.
    9000005    2    3    3    0    0 -0.16992584723E+02 -0.12236991937E+02 -0.54743934419E+02  0.59143535409E+02  0.79099631966E+01 0.  0.
         22    1    3    3    0    0  0.16992584723E+02  0.12236991937E+02  0.17683091020E+02  0.27407729115E+02  0.00000000000E+00 0. -1.
         22    1    4    4    0    0 -0.11343499489E+02 -0.11679793670E+02 -0.45150871559E+02  0.47996809929E+02  0.00000000000E+00 0. -1.
         22    1    4    4    0    0 -0.56490852336E+01 -0.55719826664E+00 -0.95930628598E+01  0.11146725480E+02  0.00000000000E+00 0. -1.
<mgrwt>
<rscale>  0 0.78215186E+02</rscale>
<asrwt>0</asrwt>
<pdfrwt beam="1">  1        1 0.38069555E-02 0.78215186E+02</pdfrwt>
<pdfrwt beam="2">  1       -1 0.95086237E-02 0.78215186E+02</pdfrwt>
<totfact> 0.13019028E+05</totfact>
</mgrwt>
</event>
<event>
 7    1  0.3565607E-009  0.8860513E+02  0.7818608E-02  0.1306265E+00
         -1   -1    0    0    0  501 -0.00000000000E+00  0.00000000000E+00  0.24349463187E+02  0.24349463708E+02  0.50400000000E-02 0.  1.
          1   -1    0    0  501    0  0.00000000000E+00 -0.00000000000E+00 -0.80606185926E+02  0.80606186084E+02  0.50400000000E-02 0. -1.
         23    2    1    2    0    0  0.00000000000E+00  0.35527136788E-14 -0.56256722740E+02  0.10495564979E+03  0.88605132864E+02 0.  0.
    9000005    2    3    3    0    0 -0.15503275177E+02 -0.21750014410E+02 -0.69387615119E+02  0.75192669385E+02  0.11219702727E+02 0.  0.
         22    1    3    3    0    0  0.15503275177E+02  0.21750014410E+02  0.13130892379E+02  0.29762980407E+02  0.00000000000E+00 0.  1.
         22    1    4    4    0    0 -0.29947950475E+01 -0.75364930515E+01 -0.35100596820E+02  0.36025260888E+02  0.00000000000E+00 0. -1.
         22    1    4    4    0    0 -0.12508480129E+02 -0.14213521359E+02 -0.34287018298E+02  0.39167408497E+02  0.00000000000E+00 0. -1.
<mgrwt>
<rscale>  0 0.88605133E+02</rscale>
<asrwt>0</asrwt>
<pdfrwt beam="2">  1        1 0.12400952E-01 0.88605133E+02</pdfrwt>
<pdfrwt beam="1">  1       -1 0.37460713E-02 0.88605133E+02</pdfrwt>
<totfact> 0.10907873E+05</totfact>
</mgrwt>
</event>
<event>
 7    1  0.3565607E-009  0.9313116E+02  0.7818608E-02  0.1295442E+00
          1   -1    0    0  501    0  0.00000000000E+00  0.00000000000E+00  0.69247488117E+02  0.69247488301E+02  0.50400000000E-02 0. -1.
         -1   -1    0    0    0  501 -0.00000000000E+00 -0.00000000000E+00 -0.31313096725E+02  0.31313097131E+02  0.50400000000E-02 0.  1.
         23    2    1    2    0    0  0.00000000000E+00  0.00000000000E+00  0.37934391392E+02  0.10056058543E+03  0.93131161767E+02 0.  0.
    9000005    2    3    3    0    0  0.20760358375E+02 -0.38455311955E+02  0.53791978968E+01  0.46066144238E+02  0.13540693390E+02 0.  0.
         22    1    3    3    0    0 -0.20760358375E+02  0.38455311955E+02  0.32555193495E+02  0.54494441193E+02  0.00000000000E+00 0. -1.
         22    1    4    4    0    0  0.22420515931E+02 -0.33711698489E+02  0.32785058144E+01  0.40619044179E+02  0.00000000000E+00 0.  1.
         22    1    4    4    0    0 -0.16601575559E+01 -0.47436134668E+01  0.21006920824E+01  0.54471000594E+01  0.00000000000E+00 0.  1.
<mgrwt>
<rscale>  0 0.93131162E+02</rscale>
<asrwt>0</asrwt>
<pdfrwt beam="1">  1        1 0.10653460E-01 0.93131162E+02</pdfrwt>
<pdfrwt beam="2">  1       -1 0.48173996E-02 0.93131162E+02</pdfrwt>
<totfact> 0.92891074E+04</totfact>
</mgrwt>
</event>
<event>
 7    1  0.3565607E-009  0.8984592E+02  0.7818608E-02  0.1303225E+00
         -1   -1    0    0    0  501 -0.00000000000E+00  0.00000000000E+00  0.49799869768E+01  0.49799895272E+01  0.50400000000E-02 0.  1.
          1   -1    0    0  501    0  0.00000000000E+00 -0.00000000000E+00 -0.40523638749E+03  0.40523638752E+03  0.50400000000E-02 0. -1.
         23    2    1    2    0    0  0.00000000000E+00  0.00000000000E+00 -0.40025640051E+03  0.41021637705E+03  0.89845922818E+02 0.  0.
    9000005    2    3    3    0    0  0.29996047666E+02 -0.32063808953E+02 -0.22068245685E+03  0.22535250291E+03  0.12456046109E+02 0.  0.
         22    1    3    3    0    0 -0.29996047666E+02  0.32063808953E+02 -0.17957394366E+03  0.18486387414E+03  0.00000000000E+00 0.  1.
         22    1    4    4    0    0  0.28553372306E+02 -0.25066063094E+02 -0.17184696624E+03  0.17599710905E+03  0.00000000000E+00 0. -1.
         22    1    4    4    0    0  0.14426753594E+01 -0.69977458591E+01 -0.48835490615E+02  0.49355393859E+02  0.00000000000E+00 0. -1.
<mgrwt>
<rscale>  0 0.89845923E+02</rscale>
<asrwt>0</asrwt>
<pdfrwt beam="2">  1        1 0.62344034E-01 0.89845923E+02</pdfrwt>
<pdfrwt beam="1">  1       -1 0.76615236E-03 0.89845923E+02</pdfrwt>
<totfact> 0.14055296E+05</totfact>
</mgrwt>
</event>
<event>
 7    1  0.3565607E-009  0.9169288E+02  0.7818608E-02  0.1298803E+00
          1   -1    0    0  501    0  0.00000000000E+00  0.00000000000E+00  0.35009356069E+02  0.35009356432E+02  0.50400000000E-02 0. -1.
         -1   -1    0    0    0  501 -0.00000000000E+00 -0.00000000000E+00 -0.60038122557E+02  0.60038122768E+02  0.50400000000E-02 0.  1.
         23    2    1    2    0    0  0.00000000000E+00 -0.17763568394E-14 -0.25028766487E+02  0.95047479201E+02  0.91692879497E+02 0.  0.
    9000005    2    3    3    0    0 -0.37352045877E+02 -0.11099391083E+02  0.11739284226E+02  0.41472658931E+02  0.79874170453E+01 0.  0.
         22    1    3    3    0    0  0.37352045877E+02  0.11099391083E+02 -0.36768050714E+02  0.53574820269E+02  0.00000000000E+00 0.  1.
         22    1    4    4    0    0 -0.31431272723E+02 -0.10787118222E+02  0.12481184708E+02  0.35497419572E+02  0.00000000000E+00 0.  1.
         22    1    4    4    0    0 -0.59207731538E+01 -0.31227286177E+00 -0.74190048178E+00  0.59752393595E+01  0.00000000000E+00 0.  1.
<mgrwt>
<rscale>  0 0.91692879E+02</rscale>
<asrwt>0</asrwt>
<pdfrwt beam="1">  1        1 0.53860548E-02 0.91692879E+02</pdfrwt>
<pdfrwt beam="2">  1       -1 0.92366343E-02 0.91692879E+02</pdfrwt>
<totfact> 0.87410578E+04</totfact>
</mgrwt>
</event>
<event>
 7    1  0.3565607E-009  0.9105176E+02  0.7818608E-02  0.1300325E+00
          1   -1    0    0  501    0  0.00000000000E+00  0.00000000000E+00  0.77231563385E+02  0.77231563549E+02  0.50400000000E-02 0. -1.
         -1   -1    0    0    0  501 -0.00000000000E+00 -0.00000000000E+00 -0.26836253893E+02  0.26836254366E+02  0.50400000000E-02 0.  1.
         23    2    1    2    0    0  0.35527136788E-14  0.35527136788E-14  0.50395309492E+02  0.10406781792E+03  0.91051762788E+02 0.  0.
    9000005    2    3    3    0    0  0.24760296728E+02  0.20544769854E+02  0.61674519094E+02  0.69974117153E+02  0.75809566276E+01 0.  0.
         22    1    3    3    0    0 -0.24760296728E+02 -0.20544769854E+02 -0.11279209602E+02  0.34093700763E+02  0.00000000000E+00 0.  1.
         22    1    4    4    0    0  0.70088195074E+01  0.19045517789E+01  0.15245045742E+02  0.16886748889E+02  0.00000000000E+00 0. -1.
         22    1    4    4    0    0  0.17751477221E+02  0.18640218075E+02  0.46429473352E+02  0.53087368264E+02  0.00000000000E+00 0. -1.
<mgrwt>
<rscale>  0 0.91051763E+02</rscale>
<asrwt>0</asrwt>
<pdfrwt beam="1">  1        1 0.11881779E-01 0.91051763E+02</pdfrwt>
<pdfrwt beam="2">  1       -1 0.41286545E-02 0.91051763E+02</pdfrwt>
<totfact> 0.10056663E+05</totfact>
</mgrwt>
</event>
<event>
 7    1  0.3565607E-009  0.9151249E+02  0.7818608E-02  0.1299230E+00
         -1   -1    0    0    0  501 -0.00000000000E+00  0.00000000000E+00  0.19675936488E+03  0.19675936494E+03  0.50400000000E-02 0.  1.
          1   -1    0    0  501    0  0.00000000000E+00 -0.00000000000E+00 -0.10640580641E+02  0.10640581835E+02  0.50400000000E-02 0. -1.
         23    2    1    2    0    0  0.35527136788E-14  0.00000000000E+00  0.18611878424E+03  0.20739994678E+03  0.91512491374E+02 0.  0.
    9000005    2    3    3    0    0 -0.23976954693E+02  0.38060140724E+02  0.85194924190E+02  0.96905176788E+02  0.10438846307E+02 0.  0.
         22    1    3    3    0    0  0.23976954693E+02 -0.38060140724E+02  0.10092386005E+03  0.11049476999E+03  0.00000000000E+00 0. -1.
         22    1    4    4    0    0 -0.19783565685E+02  0.23337984977E+02  0.51626891007E+02  0.60011556296E+02  0.00000000000E+00 0. -1.
         22    1    4    4    0    0 -0.41933890077E+01  0.14722155748E+02  0.33568033183E+02  0.36893620492E+02  0.00000000000E+00 0. -1.
<mgrwt>
<rscale>  0 0.91512491E+02</rscale>
<asrwt>0</asrwt>
<pdfrwt beam="2">  1        1 0.16370126E-02 0.91512491E+02</pdfrwt>
<pdfrwt beam="1">  1       -1 0.30270670E-01 0.91512491E+02</pdfrwt>
<totfact> 0.69082764E+04</totfact>
</mgrwt>
</event>
<event>
 7    1  0.3565607E-009  0.9972125E+02  0.7818608E-02  0.1280883E+00
          1   -1    0    0  501    0  0.00000000000E+00  0.00000000000E+00  0.45870967260E+01  0.45870994948E+01  0.50400000000E-02 0. -1.
         -1   -1    0    0    0  501 -0.00000000000E+00 -0.00000000000E+00 -0.54197271049E+03  0.54197271052E+03  0.50400000000E-02 0.  1.
         23    2    1    2    0    0  0.71054273576E-14  0.00000000000E+00 -0.53738561377E+03  0.54655981001E+03  0.99721251676E+02 0.  0.
    9000005    2    3    3    0    0  0.37615988814E+02  0.10542064687E+02 -0.43774943193E+03  0.43953894067E+03  0.66194767851E+01 0.  0.
         22    1    3    3    0    0 -0.37615988814E+02 -0.10542064687E+02 -0.99636181840E+02  0.10702086934E+03  0.00000000000E+00 0.  1.
         22    1    4    4    0    0  0.92224033196E+01  0.21479197824E+01 -0.14042368737E+03  0.14074259574E+03  0.00000000000E+00 0. -1.
         22    1    4    4    0    0  0.28393585494E+02  0.83941449047E+01 -0.29732574456E+03  0.29879634493E+03  0.00000000000E+00 0. -1.
<mgrwt>
<rscale>  0 0.99721252E+02</rscale>
<asrwt>0</asrwt>
<pdfrwt beam="1">  1        1 0.70570783E-03 0.99721252E+02</pdfrwt>
<pdfrwt beam="2">  1       -1 0.83380367E-01 0.99721252E+02</pdfrwt>
<totfact> 0.35287076E+04</totfact>
</mgrwt>
</event>
<event>
 7    1  0.3565607E-009  0.9069408E+02  0.7818608E-02  0.1301180E+00
         -1   -1    0    0    0  501 -0.00000000000E+00  0.00000000000E+00  0.13036133700E+02  0.13036134674E+02  0.50400000000E-02 0.  1.
          1   -1    0    0  501    0  0.00000000000E+00 -0.00000000000E+00 -0.15774263001E+03  0.15774263009E+03  0.50400000000E-02 0. -1.
         23    2    1    2    0    0  0.00000000000E+00  0.00000000000E+00 -0.14470649631E+03  0.17077876477E+03  0.90694081507E+02 0.  0.
    9000005    2    3    3    0    0  0.26548337900E+02  0.34386385800E+02 -0.96595218449E+02  0.10595644738E+03  0.29824052068E+01 0.  0.
         22    1    3    3    0    0 -0.26548337900E+02 -0.34386385800E+02 -0.48111277865E+02  0.64822317387E+02  0.00000000000E+00 0.  1.
         22    1    4    4    0    0  0.14139000341E+02  0.16468692359E+02 -0.50573354750E+02  0.55034474371E+02  0.00000000000E+00 0. -1.
         22    1    4    4    0    0  0.12409337559E+02  0.17917693441E+02 -0.46021863699E+02  0.50921973010E+02  0.00000000000E+00 0. -1.
<mgrwt>
<rscale>  0 0.90694082E+02</rscale>
<asrwt>0</asrwt>
<pdfrwt beam="2">  1        1 0.24268096E-01 0.90694082E+02</pdfrwt>
<pdfrwt beam="1">  1       -1 0.20055592E-02 0.90694082E+02</pdfrwt>
<totfact> 0.11481034E+05</totfact>
</mgrwt>
</event>
<event>
 7    1  0.3565607E-009  0.8856420E+02  0.7818608E-02  0.1306366E+00
         -1   -1    0    0    0  501 -0.00000000000E+00  0.00000000000E+00  0.23474893224E+03  0.23474893230E+03  0.50400000000E-02 0.  1.
          1   -1    0    0  501    0  0.00000000000E+00 -0.00000000000E+00 -0.83531975672E+01  0.83531990877E+01  0.50400000000E-02 0. -1.
         23    2    1    2    0    0  0.00000000000E+00  0.00000000000E+00  0.22639573467E+03  0.24310213138E+03  0.88564200467E+02 0.  0.
    9000005    2    3    3    0    0  0.13112261270E+02 -0.63821963505E+01  0.22785008763E+03  0.22844679214E+03  0.77207887013E+01 0.  0.
         22    1    3    3    0    0 -0.13112261270E+02  0.63821963505E+01 -0.14543529583E+01  0.14655339245E+02  0.00000000000E+00 0. -1.
         22    1    4    4    0    0  0.18182723645E+01 -0.16409137594E+01  0.95424620152E+02  0.95456046658E+02  0.00000000000E+00 0.  1.
         22    1    4    4    0    0  0.11293988905E+02 -0.47412825911E+01  0.13242546748E+03  0.13299074548E+03  0.00000000000E+00 0.  1.
<mgrwt>
<rscale>  0 0.88564200E+02</rscale>
<asrwt>0</asrwt>
<pdfrwt beam="2">  1        1 0.12851074E-02 0.88564200E+02</pdfrwt>
<pdfrwt beam="1">  1       -1 0.36115223E-01 0.88564200E+02</pdfrwt>
<totfact> 0.71330819E+04</totfact>
</mgrwt>
</event>
<event>
 7    1  0.3565607E-009  0.9620185E+02  0.7818608E-02  0.1288492E+00
         -1   -1    0    0    0  501 -0.00000000000E+00  0.00000000000E+00  0.37957430633E+02  0.37957430967E+02  0.50400000000E-02 0.  1.
          1   -1    0    0  501    0  0.00000000000E+00 -0.00000000000E+00 -0.60955105716E+02  0.60955105925E+02  0.50400000000E-02 0. -1.
         23    2    1    2    0    0  0.00000000000E+00 -0.88817841970E-15 -0.22997675084E+02  0.98912536892E+02  0.96201854947E+02 0.  0.
    9000005    2    3    3    0    0  0.38398520646E+02  0.74720578021E+01 -0.39317317787E+02  0.56526114850E+02  0.10912018447E+02 0.  0.
         22    1    3    3    0    0 -0.38398520646E+02 -0.74720578021E+01  0.16319642703E+02  0.42386422042E+02  0.00000000000E+00 0.  1.
         22    1    4    4    0    0  0.56104362095E+01 -0.38283449007E+00 -0.11556479201E+02  0.12852072527E+02  0.00000000000E+00 0. -1.
         22    1    4    4    0    0  0.32788084436E+02  0.78548922922E+01 -0.27760838585E+02  0.43674042323E+02  0.00000000000E+00 0. -1.
<mgrwt>
<rscale>  0 0.96201855E+02</rscale>
<asrwt>0</asrwt>
<pdfrwt beam="2">  1        1 0.93777086E-02 0.96201855E+02</pdfrwt>
<pdfrwt beam="1">  1       -1 0.58396048E-02 0.96201855E+02</pdfrwt>
<totfact> 0.83192724E+04</totfact>
</mgrwt>
</event>
<event>
 7    1  0.3565607E-009  0.9173951E+02  0.7818608E-02  0.1298693E+00
         -1   -1    0    0    0  501 -0.00000000000E+00  0.00000000000E+00  0.82330156910E+02  0.82330157065E+02  0.50400000000E-02 0.  1.
          1   -1    0    0  501    0  0.00000000000E+00 -0.00000000000E+00 -0.25556058469E+02  0.25556058966E+02  0.50400000000E-02 0. -1.
         23    2    1    2    0    0  0.00000000000E+00  0.00000000000E+00  0.56774098441E+02  0.10788621603E+03  0.91739508151E+02 0.  0.
    9000005    2    3    3    0    0  0.36194193285E+02  0.66688389140E+01 -0.27976376502E+01  0.37862757241E+02  0.84420713945E+01 0.  0.
         22    1    3    3    0    0 -0.36194193285E+02 -0.66688389140E+01  0.59571736091E+02  0.70023458790E+02  0.00000000000E+00 0.  1.
         22    1    4    4    0    0  0.56523724046E+01  0.74597289008E+00 -0.35977823685E+01  0.67416487096E+01  0.00000000000E+00 0. -1.
         22    1    4    4    0    0  0.30541820881E+02  0.59228660239E+01  0.80014471838E+00  0.31121108531E+02  0.00000000000E+00 0. -1.
<mgrwt>
<rscale>  0 0.91739508E+02</rscale>
<asrwt>0</asrwt>
<pdfrwt beam="2">  1        1 0.39317014E-02 0.91739508E+02</pdfrwt>
<pdfrwt beam="1">  1       -1 0.12666178E-01 0.91739508E+02</pdfrwt>
<totfact> 0.82919684E+04</totfact>
</mgrwt>
</event>
<event>
 7    1  0.5193695E-009  0.1111192E+03  0.7818608E-02  0.1258511E+00
         -1   -1    0    0    0  501 -0.00000000000E+00  0.00000000000E+00  0.14320377612E+02  0.14320378499E+02  0.50400000000E-02 0.  1.
          1   -1    0    0  501    0  0.00000000000E+00 -0.00000000000E+00 -0.21555767419E+03  0.21555767425E+03  0.50400000000E-02 0. -1.
         23    2    1    2    0    0  0.00000000000E+00 -0.35527136788E-14 -0.20123729658E+03  0.22987805275E+03  0.11111916847E+03 0.  0.
    9000005    2    3    3    0    0  0.30939770878E+02  0.22152742190E+02 -0.21944556730E+02  0.46591664900E+02  0.15530816450E+02 0.  0.
         22    1    3    3    0    0 -0.30939770878E+02 -0.22152742190E+02 -0.17929273985E+03  0.18328638785E+03  0.00000000000E+00 0. -1.
         22    1    4    4    0    0  0.96207782728E+01  0.94871011038E+00 -0.53947933112E+00  0.96824822952E+01  0.00000000000E+00 0.  1.
         22    1    4    4    0    0  0.21318992605E+02  0.21204032079E+02 -0.21405077399E+02  0.36909182605E+02  0.00000000000E+00 0.  1.
<mgrwt>
<rscale>  0 0.11111917E+03</rscale>
<asrwt>0</asrwt>
<pdfrwt beam="2">  1        1 0.33162717E-01 0.11111917E+03</pdfrwt>
<pdfrwt beam="1">  1       -1 0.22031352E-02 0.11111917E+03</pdfrwt>
<totfact> 0.70311486E+04</totfact>
</mgrwt>
</event>
<event>
 7    1  0.3565607E-009  0.9005605E+02  0.7818608E-02  0.1302716E+00
          1   -1    0    0  501    0  0.00000000000E+00  0.00000000000E+00  0.12941396338E+03  0.12941396347E+03  0.50400000000E-02 0. -1.
         -1   -1    0    0    0  501 -0.00000000000E+00 -0.00000000000E+00 -0.15666956608E+02  0.15666957419E+02  0.50400000000E-02 0.  1.
         23    2    1    2    0    0  0.00000000000E+00  0.00000000000E+00  0.11374700677E+03  0.14508092089E+03  0.90056049539E+02 0.  0.
    9000005    2    3    3    0    0 -0.22206726447E+02 -0.16545012959E+02  0.38194099028E+01  0.31718878279E+02  0.14987434535E+02 0.  0.
         22    1    3    3    0    0  0.22206726447E+02  0.16545012959E+02  0.10992759686E+03  0.11336204261E+03  0.00000000000E+00 0. -1.
         22    1    4    4    0    0 -0.20330633645E+02 -0.14491111850E+02  0.84153589840E+01  0.26346636482E+02  0.00000000000E+00 0. -1.
         22    1    4    4    0    0 -0.18760928016E+01 -0.20539011087E+01 -0.45959490812E+01  0.53722417966E+01  0.00000000000E+00 0. -1.
<mgrwt>
<rscale>  0 0.90056050E+02</rscale>
<asrwt>0</asrwt>
<pdfrwt beam="1">  1        1 0.19909841E-01 0.90056050E+02</pdfrwt>
<pdfrwt beam="2">  1       -1 0.24103010E-02 0.90056050E+02</pdfrwt>
<totfact> 0.11289153E+05</totfact>
</mgrwt>
</event>
<event>
 7    1  0.3565607E-009  0.9273797E+02  0.7818608E-02  0.1296354E+00
          1   -1    0    0  501    0  0.00000000000E+00  0.00000000000E+00  0.27152929152E+03  0.27152929157E+03  0.50400000000E-02 0.  1.
         -1   -1    0    0    0  501 -0.00000000000E+00 -0.00000000000E+00 -0.79184183817E+01  0.79184199857E+01  0.50400000000E-02 0. -1.
         23    2    1    2    0    0  0.00000000000E+00  0.00000000000E+00  0.26361087314E+03  0.27944771155E+03  0.92737969868E+02 0.  0.
    9000005    2    3    3    0    0  0.83967288799E+01  0.84220992453E+01  0.26680114283E+03  0.26713452219E+03  0.60470092251E+01 0.  0.
         22    1    3    3    0    0 -0.83967288799E+01 -0.84220992453E+01 -0.31902696886E+01  0.12313189362E+02  0.00000000000E+00 0. -1.
         22    1    4    4    0    0  0.66853305818E+00  0.45770525955E+01  0.79298484338E+02  0.79433279960E+02  0.00000000000E+00 0. -1.
         22    1    4    4    0    0  0.77281958217E+01  0.38450466498E+01  0.18750265849E+03  0.18770124223E+03  0.00000000000E+00 0. -1.
<mgrwt>
<rscale>  0 0.92737970E+02</rscale>
<asrwt>0</asrwt>
<pdfrwt beam="1">  1        1 0.41773739E-01 0.92737970E+02</pdfrwt>
<pdfrwt beam="2">  1       -1 0.12182183E-02 0.92737970E+02</pdfrwt>
<totfact> 0.12010610E+05</totfact>
</mgrwt>
</event>
<event>
 7    1  0.3565607E-009  0.9149043E+02  0.7818608E-02  0.1299282E+00
         -1   -1    0    0    0  501 -0.00000000000E+00  0.00000000000E+00  0.50646408652E+01  0.50646433730E+01  0.50400000000E-02 0.  1.
          1   -1    0    0  501    0  0.00000000000E+00 -0.00000000000E+00 -0.41318316806E+03  0.41318316809E+03  0.50400000000E-02 0. -1.
         23    2    1    2    0    0 -0.35527136788E-14  0.00000000000E+00 -0.40811852720E+03  0.41824781146E+03  0.91490434224E+02 0.  0.
    9000005    2    3    3    0    0  0.27106755109E+02  0.35782960695E+02 -0.24243234386E+03  0.24658795071E+03  0.41206350758E+01 0.  0.
         22    1    3    3    0    0 -0.27106755109E+02 -0.35782960695E+02 -0.16568618333E+03  0.17165986076E+03  0.00000000000E+00 0. -1.
         22    1    4    4    0    0  0.17254327999E+01  0.10660429457E+01 -0.13462507877E+02  0.13614429266E+02  0.00000000000E+00 0.  1.
         22    1    4    4    0    0  0.25381322309E+02  0.34716917749E+02 -0.22896983599E+03  0.23297352144E+03  0.00000000000E+00 0.  1.
<mgrwt>
<rscale>  0 0.91490434E+02</rscale>
<asrwt>0</asrwt>
<pdfrwt beam="2">  1        1 0.63566615E-01 0.91490434E+02</pdfrwt>
<pdfrwt beam="1">  1       -1 0.77917604E-03 0.91490434E+02</pdfrwt>
<totfact> 0.13436750E+05</totfact>
</mgrwt>
</event>
<event>
 7    1  0.3565607E-009  0.9305449E+02  0.7818608E-02  0.1295619E+00
          1   -1    0    0  501    0  0.00000000000E+00  0.00000000000E+00  0.39017163601E+01  0.39017196152E+01  0.50400000000E-02 0. -1.
         -1   -1    0    0    0  501 -0.00000000000E+00 -0.00000000000E+00 -0.55482856053E+03  0.55482856055E+03  0.50400000000E-02 0.  1.
         23    2    1    2    0    0  0.00000000000E+00  0.00000000000E+00 -0.55092684417E+03  0.55873028016E+03  0.93054491292E+02 0.  0.
    9000005    2    3    3    0    0  0.81842429496E+01  0.12521306409E+02 -0.53975737634E+03  0.54006153735E+03  0.10231024433E+02 0.  0.
         22    1    3    3    0    0 -0.81842429496E+01 -0.12521306409E+02 -0.11169467824E+02  0.18668742816E+02  0.00000000000E+00 0. -1.
         22    1    4    4    0    0  0.10047930310E+02  0.72201534773E+01 -0.39976304933E+03  0.39995448132E+03  0.00000000000E+00 0.  1.
         22    1    4    4    0    0 -0.18636873601E+01  0.53011529316E+01 -0.13999432701E+03  0.14010705602E+03  0.00000000000E+00 0.  1.
<mgrwt>
<rscale>  0 0.93054491E+02</rscale>
<asrwt>0</asrwt>
<pdfrwt beam="1">  1        1 0.60026475E-03 0.93054491E+02</pdfrwt>
<pdfrwt beam="2">  1       -1 0.85358178E-01 0.93054491E+02</pdfrwt>
<totfact> 0.41684030E+04</totfact>
</mgrwt>
</event>
<event>
 7    1  0.3565607E-009  0.9034353E+02  0.7818608E-02  0.1302022E+00
          1   -1    0    0  501    0  0.00000000000E+00  0.00000000000E+00  0.17619878669E+02  0.17619879389E+02  0.50400000000E-02 0. -1.
         -1   -1    0    0    0  501 -0.00000000000E+00 -0.00000000000E+00 -0.11580604629E+03  0.11580604640E+03  0.50400000000E-02 0.  1.
         23    2    1    2    0    0  0.00000000000E+00  0.00000000000E+00 -0.98186167617E+02  0.13342592579E+03  0.90343534136E+02 0.  0.
    9000005    2    3    3    0    0 -0.15265534250E+02 -0.91930195533E+01 -0.10996969469E+03  0.11206241356E+03  0.12128587684E+02 0.  0.
         22    1    3    3    0    0  0.15265534250E+02  0.91930195533E+01  0.11783527068E+02  0.21363512225E+02  0.00000000000E+00 0. -1.
         22    1    4    4    0    0 -0.26365855890E+01 -0.89730195335E+00 -0.54513601669E+02  0.54584700249E+02  0.00000000000E+00 0.  1.
         22    1    4    4    0    0 -0.12628948661E+02 -0.82957175999E+01 -0.55456093017E+02  0.57477713311E+02  0.00000000000E+00 0.  1.
<mgrwt>
<rscale>  0 0.90343534E+02</rscale>
<asrwt>0</asrwt>
<pdfrwt beam="1">  1        1 0.27107507E-02 0.90343534E+02</pdfrwt>
<pdfrwt beam="2">  1       -1 0.17816314E-01 0.90343534E+02</pdfrwt>
<totfact> 0.80995349E+04</totfact>
</mgrwt>
</event>
<event>
 7    1  0.3565607E-009  0.8932552E+02  0.7818608E-02  0.1304493E+00
         -1   -1    0    0    0  501 -0.00000000000E+00  0.00000000000E+00  0.12113648578E+03  0.12113648589E+03  0.50400000000E-02 0.  1.
          1   -1    0    0  501    0  0.00000000000E+00 -0.00000000000E+00 -0.16467063512E+02  0.16467064283E+02  0.50400000000E-02 0. -1.
         23    2    1    2    0    0  0.00000000000E+00  0.88817841970E-15  0.10466942227E+03  0.13760355017E+03  0.89325523010E+02 0.  0.
    9000005    2    3    3    0    0  0.41166125382E+02  0.73077414707E+01  0.28174778790E+02  0.50428533993E+02  0.10797760918E+01 0.  0.
         22    1    3    3    0    0 -0.41166125382E+02 -0.73077414707E+01  0.76494643480E+02  0.87175016177E+02  0.00000000000E+00 0. -1.
         22    1    4    4    0    0  0.28574223789E+02  0.55614556676E+01  0.19757376291E+02  0.35181955207E+02  0.00000000000E+00 0. -1.
         22    1    4    4    0    0  0.12591901594E+02  0.17462858031E+01  0.84174024995E+01  0.15246578786E+02  0.00000000000E+00 0. -1.
<mgrwt>
<rscale>  0 0.89325523E+02</rscale>
<asrwt>0</asrwt>
<pdfrwt beam="2">  1        1 0.25333943E-02 0.89325523E+02</pdfrwt>
<pdfrwt beam="1">  1       -1 0.18636384E-01 0.89325523E+02</pdfrwt>
<totfact> 0.82643147E+04</totfact>
</mgrwt>
</event>
<event>
 7    1  0.3565607E-009  0.9101616E+02  0.7818608E-02  0.1300409E+00
         -1   -1    0    0    0  501 -0.00000000000E+00  0.00000000000E+00  0.59204772991E+01  0.59204794443E+01  0.50400000000E-02 0.  1.
          1   -1    0    0  501    0  0.00000000000E+00 -0.00000000000E+00 -0.34980033241E+03  0.34980033245E+03  0.50400000000E-02 0. -1.
         23    2    1    2    0    0  0.00000000000E+00  0.17763568394E-14 -0.34387985512E+03  0.35572081189E+03  0.91016159340E+02 0.  0.
    9000005    2    3    3    0    0  0.77198794221E+01  0.10075389867E+02 -0.34246515959E+03  0.34294930522E+03  0.13066384406E+02 0.  0.
         22    1    3    3    0    0 -0.77198794221E+01 -0.10075389867E+02 -0.14146955272E+01  0.12771506673E+02  0.00000000000E+00 0.  1.
         22    1    4    4    0    0  0.27474495738E+01  0.11767189957E+02 -0.28116428555E+03  0.28142382754E+03  0.00000000000E+00 0.  1.
         22    1    4    4    0    0  0.49724298483E+01 -0.16918000902E+01 -0.61300874042E+02  0.61525477686E+02  0.00000000000E+00 0.  1.
<mgrwt>
<rscale>  0 0.91016159E+02</rscale>
<asrwt>0</asrwt>
<pdfrwt beam="2">  1        1 0.53815420E-01 0.91016159E+02</pdfrwt>
<pdfrwt beam="1">  1       -1 0.91084310E-03 0.91016159E+02</pdfrwt>
<totfact> 0.13243904E+05</totfact>
</mgrwt>
</event>
<event>
 7    1  0.3565607E-009  0.9370674E+02  0.7818608E-02  0.1294116E+00
          1   -1    0    0  501    0  0.00000000000E+00  0.00000000000E+00  0.49826986791E+01  0.49827012281E+01  0.50400000000E-02 0. -1.
         -1   -1    0    0    0  501 -0.00000000000E+00 -0.00000000000E+00 -0.44057205549E+03  0.44057205552E+03  0.50400000000E-02 0.  1.
         23    2    1    2    0    0 -0.40245584643E-15  0.00000000000E+00 -0.43558935681E+03  0.44555475675E+03  0.93706741982E+02 0.  0.
    9000005    2    3    3    0    0 -0.73117516270E-01  0.26281165959E+02 -0.40122994806E+03  0.40229653209E+03  0.12896646282E+02 0.  0.
         22    1    3    3    0    0  0.73117516270E-01 -0.26281165959E+02 -0.34359408754E+02  0.43258224655E+02  0.00000000000E+00 0. -1.
         22    1    4    4    0    0 -0.29854686548E+01  0.22750675541E+02 -0.37233622278E+03  0.37304258343E+03  0.00000000000E+00 0.  1.
         22    1    4    4    0    0  0.29123511386E+01  0.35304904186E+01 -0.28893725277E+02  0.29253948658E+02  0.00000000000E+00 0.  1.
<mgrwt>
<rscale>  0 0.93706742E+02</rscale>
<asrwt>0</asrwt>
<pdfrwt beam="1">  1        1 0.76656957E-03 0.93706742E+02</pdfrwt>
<pdfrwt beam="2">  1       -1 0.67780286E-01 0.93706742E+02</pdfrwt>
<totfact> 0.47131724E+04</totfact>
</mgrwt>
</event>
<event>
 7    1  0.3565607E-009  0.9557897E+02  0.7818608E-02  0.1289877E+00
         -1   -1    0    0    0  501 -0.00000000000E+00  0.00000000000E+00  0.69696182914E+02  0.69696183097E+02  0.50400000000E-02 0.  1.
          1   -1    0    0  501    0  0.00000000000E+00 -0.00000000000E+00 -0.32768435633E+02  0.32768436021E+02  0.50400000000E-02 0. -1.
         23    2    1    2    0    0  0.44408920985E-15  0.00000000000E+00  0.36927747281E+02  0.10246461912E+03  0.95578970760E+02 0.  0.
    9000005    2    3    3    0    0 -0.21241333953E+01 -0.38229011694E+02 -0.10438696644E+02  0.41558549732E+02  0.12336020040E+02 0.  0.
         22    1    3    3    0    0  0.21241333953E+01  0.38229011694E+02  0.47366443925E+02  0.60906069385E+02  0.00000000000E+00 0.  1.
         22    1    4    4    0    0  0.51355721051E+01 -0.18298791675E+02 -0.44904654953E+01  0.19529059321E+02  0.00000000000E+00 0.  1.
         22    1    4    4    0    0 -0.72597055004E+01 -0.19930220019E+02 -0.59482311489E+01  0.22029490411E+02  0.00000000000E+00 0.  1.
<mgrwt>
<rscale>  0 0.95578971E+02</rscale>
<asrwt>0</asrwt>
<pdfrwt beam="2">  1        1 0.50412978E-02 0.95578971E+02</pdfrwt>
<pdfrwt beam="1">  1       -1 0.10722490E-01 0.95578971E+02</pdfrwt>
<totfact> 0.76782167E+04</totfact>
</mgrwt>
</event>
<event>
 7    1  0.3565607E-009  0.9112795E+02  0.7818608E-02  0.1300143E+00
         -1   -1    0    0    0  501 -0.00000000000E+00  0.00000000000E+00  0.15799176797E+02  0.15799177601E+02  0.50400000000E-02 0.  1.
          1   -1    0    0  501    0  0.00000000000E+00 -0.00000000000E+00 -0.13140404857E+03  0.13140404867E+03  0.50400000000E-02 0. -1.
         23    2    1    2    0    0  0.00000000000E+00  0.71054273576E-14 -0.11560487177E+03  0.14720322627E+03  0.91127950961E+02 0.  0.
    9000005    2    3    3    0    0  0.85347665134E+01 -0.44460102551E+02 -0.58835665350E+02  0.74592719066E+02  0.72729129170E+01 0.  0.
         22    1    3    3    0    0 -0.85347665134E+01  0.44460102551E+02 -0.56769206425E+02  0.72610507204E+02  0.00000000000E+00 0. -1.
         22    1    4    4    0    0  0.51780414342E+01 -0.38296234652E+02 -0.52074371521E+02  0.64847157771E+02  0.00000000000E+00 0. -1.
         22    1    4    4    0    0  0.33567250792E+01 -0.61638678989E+01 -0.67612938288E+01  0.97455612958E+01  0.00000000000E+00 0. -1.
<mgrwt>
<rscale>  0 0.91127951E+02</rscale>
<asrwt>0</asrwt>
<pdfrwt beam="2">  1        1 0.20216007E-01 0.91127951E+02</pdfrwt>
<pdfrwt beam="1">  1       -1 0.24306427E-02 0.91127951E+02</pdfrwt>
<totfact> 0.10963554E+05</totfact>
</mgrwt>
</event>
<event>
 7    1  0.3565607E-009  0.9177643E+02  0.7818608E-02  0.1298606E+00
         -1   -1    0    0    0  501 -0.00000000000E+00  0.00000000000E+00  0.13785111913E+03  0.13785111922E+03  0.50400000000E-02 0.  1.
          1   -1    0    0  501    0  0.00000000000E+00 -0.00000000000E+00 -0.15275378193E+02  0.15275379025E+02  0.50400000000E-02 0. -1.
         23    2    1    2    0    0  0.00000000000E+00  0.00000000000E+00  0.12257574093E+03  0.15312649824E+03  0.91776425072E+02 0.  0.
    9000005    2    3    3    0    0 -0.41530603513E+02  0.15344271437E+02  0.79843861250E+02  0.91593976474E+02  0.73604791190E+01 0.  0.
         22    1    3    3    0    0  0.41530603513E+02 -0.15344271437E+02  0.42731879684E+02  0.61532521770E+02  0.00000000000E+00 0. -1.
         22    1    4    4    0    0 -0.11282388239E+02  0.17889266360E+01  0.25452605412E+02  0.27898524426E+02  0.00000000000E+00 0.  1.
         22    1    4    4    0    0 -0.30248215274E+02  0.13555344801E+02  0.54391255838E+02  0.63695452048E+02  0.00000000000E+00 0.  1.
<mgrwt>
<rscale>  0 0.91776425E+02</rscale>
<asrwt>0</asrwt>
<pdfrwt beam="2">  1        1 0.23500583E-02 0.91776425E+02</pdfrwt>
<pdfrwt beam="1">  1       -1 0.21207864E-01 0.91776425E+02</pdfrwt>
<totfact> 0.74957088E+04</totfact>
</mgrwt>
</event>
<event>
 7    1  0.3565607E-009  0.9035696E+02  0.7818608E-02  0.1301990E+00
         -1   -1    0    0    0  501 -0.00000000000E+00  0.00000000000E+00  0.33926647156E+03  0.33926647160E+03  0.50400000000E-02 0.  1.
          1   -1    0    0  501    0  0.00000000000E+00 -0.00000000000E+00 -0.60161994770E+01  0.60162015881E+01  0.50400000000E-02 0. -1.
         23    2    1    2    0    0  0.00000000000E+00 -0.17763568394E-14  0.33325027208E+03  0.34528267319E+03  0.90356961872E+02 0.  0.
    9000005    2    3    3    0    0  0.24840034793E+02 -0.13388801541E+02  0.30079933687E+03  0.30227859743E+03  0.97888747461E+01 0.  0.
         22    1    3    3    0    0 -0.24840034793E+02  0.13388801541E+02  0.32450935215E+02  0.43004075755E+02  0.00000000000E+00 0. -1.
         22    1    4    4    0    0  0.21854477617E+02 -0.72484755904E+01  0.23599023414E+03  0.23711083738E+03  0.00000000000E+00 0. -1.
         22    1    4    4    0    0  0.29855571762E+01 -0.61403259508E+01  0.64809102727E+02  0.65167760056E+02  0.00000000000E+00 0. -1.
<mgrwt>
<rscale>  0 0.90356962E+02</rscale>
<asrwt>0</asrwt>
<pdfrwt beam="2">  1        1 0.92556912E-03 0.90356962E+02</pdfrwt>
<pdfrwt beam="1">  1       -1 0.52194853E-01 0.90356962E+02</pdfrwt>
<totfact> 0.58950968E+04</totfact>
</mgrwt>
</event>
<event>
 7    1  0.3565607E-009  0.9068297E+02  0.7818608E-02  0.1301206E+00
          1   -1    0    0  501    0  0.00000000000E+00  0.00000000000E+00  0.12891570744E+02  0.12891571729E+02  0.50400000000E-02 0. -1.
         -1   -1    0    0    0  501 -0.00000000000E+00 -0.00000000000E+00 -0.15947245170E+03  0.15947245178E+03  0.50400000000E-02 0.  1.
         23    2    1    2    0    0  0.00000000000E+00  0.00000000000E+00 -0.14658088096E+03  0.17236402351E+03  0.90682974909E+02 0.  0.
    9000005    2    3    3    0    0 -0.38728235767E+02  0.22816926572E+02 -0.72824063084E+02  0.85989510101E+02  0.83882834760E+01 0.  0.
         22    1    3    3    0    0  0.38728235767E+02 -0.22816926572E+02 -0.73756817874E+02  0.86374513409E+02  0.00000000000E+00 0.  1.
         22    1    4    4    0    0 -0.30982100014E+02  0.17682467053E+02 -0.63444007727E+02  0.72785316368E+02  0.00000000000E+00 0. -1.
         22    1    4    4    0    0 -0.77461357528E+01  0.51344595186E+01 -0.93800553570E+01  0.13204193733E+02  0.00000000000E+00 0. -1.
<mgrwt>
<rscale>  0 0.90682975E+02</rscale>
<asrwt>0</asrwt>
<pdfrwt beam="1">  1        1 0.19833188E-02 0.90682975E+02</pdfrwt>
<pdfrwt beam="2">  1       -1 0.24534222E-01 0.90682975E+02</pdfrwt>
<totfact> 0.74749270E+04</totfact>
</mgrwt>
</event>
<event>
 7    1  0.3565607E-009  0.9209758E+02  0.7818608E-02  0.1297850E+00
          1   -1    0    0  501    0  0.00000000000E+00  0.00000000000E+00  0.41668963624E+01  0.41668994104E+01  0.50400000000E-02 0. -1.
         -1   -1    0    0    0  501 -0.00000000000E+00 -0.00000000000E+00 -0.50888958230E+03  0.50888958232E+03  0.50400000000E-02 0.  1.
         23    2    1    2    0    0  0.00000000000E+00  0.22204460493E-15 -0.50472268593E+03  0.51305648173E+03  0.92097577333E+02 0.  0.
    9000005    2    3    3    0    0 -0.11984306471E+02 -0.15211716744E+01 -0.49980651697E+03  0.50001400183E+03  0.78428342881E+01 0.  0.
         22    1    3    3    0    0  0.11984306471E+02  0.15211716744E+01 -0.49161689630E+01  0.13042479907E+02  0.00000000000E+00 0. -1.
         22    1    4    4    0    0 -0.41767983384E+00 -0.13880145752E+01 -0.15084460783E+02  0.15153943316E+02  0.00000000000E+00 0.  1.
         22    1    4    4    0    0 -0.11566626637E+02 -0.13315709922E+00 -0.48472205619E+03  0.48486005851E+03  0.00000000000E+00 0.  1.
<mgrwt>
<rscale>  0 0.92097577E+02</rscale>
<asrwt>0</asrwt>
<pdfrwt beam="1">  1        1 0.64106162E-03 0.92097577E+02</pdfrwt>
<pdfrwt beam="2">  1       -1 0.78290656E-01 0.92097577E+02</pdfrwt>
<totfact> 0.45318497E+04</totfact>
</mgrwt>
</event>
<event>
 7    1  0.3565607E-009  0.9317144E+02  0.7818608E-02  0.1295348E+00
         -1   -1    0    0    0  501 -0.00000000000E+00  0.00000000000E+00  0.31439948251E+03  0.31439948255E+03  0.50400000000E-02 0.  1.
          1   -1    0    0  501    0  0.00000000000E+00 -0.00000000000E+00 -0.69027759713E+01  0.69027778113E+01  0.50400000000E-02 0. -1.
         23    2    1    2    0    0  0.00000000000E+00  0.00000000000E+00  0.30749670654E+03  0.32130226036E+03  0.93171444023E+02 0.  0.
    9000005    2    3    3    0    0 -0.85998118691E+01 -0.44113956262E+02  0.13914284283E+03  0.14705237850E+03  0.15610042025E+02 0.  0.
         22    1    3    3    0    0  0.85998118691E+01  0.44113956262E+02  0.16835386371E+03  0.17424988186E+03  0.00000000000E+00 0. -1.
         22    1    4    4    0    0 -0.44983333789E+01 -0.39500277780E+02  0.10338072034E+03  0.11076136640E+03  0.00000000000E+00 0.  1.
         22    1    4    4    0    0 -0.41014784902E+01 -0.46136784815E+01  0.35762122486E+02  0.36291012106E+02  0.00000000000E+00 0.  1.
<mgrwt>
<rscale>  0 0.93171444E+02</rscale>
<asrwt>0</asrwt>
<pdfrwt beam="2">  1        1 0.10619655E-02 0.93171444E+02</pdfrwt>
<pdfrwt beam="1">  1       -1 0.48369157E-01 0.93171444E+02</pdfrwt>
<totfact> 0.56179873E+04</totfact>
</mgrwt>
</event>
<event>
 7    1  0.3565607E-009  0.9088146E+02  0.7818608E-02  0.1300731E+00
         -1   -1    0    0    0  501 -0.00000000000E+00  0.00000000000E+00  0.17121133132E+03  0.17121133139E+03  0.50400000000E-02 0.  1.
          1   -1    0    0  501    0  0.00000000000E+00 -0.00000000000E+00 -0.12060298393E+02  0.12060299446E+02  0.50400000000E-02 0. -1.
         23    2    1    2    0    0  0.00000000000E+00  0.00000000000E+00  0.15915103292E+03  0.18327163084E+03  0.90881457894E+02 0.  0.
    9000005    2    3    3    0    0  0.43603108859E+01  0.39753986905E+02  0.12122676273E+03  0.12815682289E+03  0.11351275876E+02 0.  0.
         22    1    3    3    0    0 -0.43603108859E+01 -0.39753986905E+02  0.37924270194E+02  0.55114807952E+02  0.00000000000E+00 0. -1.
         22    1    4    4    0    0  0.45133896964E+01  0.22760946420E+02  0.85525381686E+02  0.88617279811E+02  0.00000000000E+00 0. -1.
         22    1    4    4    0    0 -0.15307881056E+00  0.16993040486E+02  0.35701381045E+02  0.39539543075E+02  0.00000000000E+00 0. -1.
<mgrwt>
<rscale>  0 0.90881458E+02</rscale>
<asrwt>0</asrwt>
<pdfrwt beam="2">  1        1 0.18554305E-02 0.90881458E+02</pdfrwt>
<pdfrwt beam="1">  1       -1 0.26340206E-01 0.90881458E+02</pdfrwt>
<totfact> 0.73020551E+04</totfact>
</mgrwt>
</event>
<event>
 7    1  0.3565607E-009  0.8911853E+02  0.7818608E-02  0.1305000E+00
         -1   -1    0    0    0  501 -0.00000000000E+00  0.00000000000E+00  0.11424684871E+02  0.11424685982E+02  0.50400000000E-02 0.  1.
          1   -1    0    0  501    0  0.00000000000E+00 -0.00000000000E+00 -0.17379281764E+03  0.17379281772E+03  0.50400000000E-02 0. -1.
         23    2    1    2    0    0  0.00000000000E+00  0.00000000000E+00 -0.16236813277E+03  0.18521750370E+03  0.89118534190E+02 0.  0.
    9000005    2    3    3    0    0 -0.27230742609E+02  0.10731713946E+02 -0.17293800557E+02  0.37220054751E+02  0.15151696627E+02 0.  0.
         22    1    3    3    0    0  0.27230742609E+02 -0.10731713946E+02 -0.14507433221E+03  0.14799744895E+03  0.00000000000E+00 0. -1.
         22    1    4    4    0    0 -0.16756076799E+01  0.65290445295E+01 -0.15663762254E+01  0.69202325138E+01  0.00000000000E+00 0.  1.
         22    1    4    4    0    0 -0.25555134929E+02  0.42026694164E+01 -0.15727424332E+02  0.30299822237E+02  0.00000000000E+00 0.  1.
<mgrwt>
<rscale>  0 0.89118534E+02</rscale>
<asrwt>0</asrwt>
<pdfrwt beam="2">  1        1 0.26737355E-01 0.89118534E+02</pdfrwt>
<pdfrwt beam="1">  1       -1 0.17576440E-02 0.89118534E+02</pdfrwt>
<totfact> 0.12253785E+05</totfact>
</mgrwt>
</event>
<event>
 7    1  0.3565607E-009  0.8942867E+02  0.7818608E-02  0.1304241E+00
          1   -1    0    0  501    0  0.00000000000E+00  0.00000000000E+00  0.51093214836E+02  0.51093215085E+02  0.50400000000E-02 0. -1.
         -1   -1    0    0    0  501 -0.00000000000E+00 -0.00000000000E+00 -0.39131841491E+02  0.39131841816E+02  0.50400000000E-02 0.  1.
         23    2    1    2    0    0  0.17763568394E-14 -0.88817841970E-15  0.11961373345E+02  0.90225056901E+02  0.89428666771E+02 0.  0.
    9000005    2    3    3    0    0 -0.13118535642E+02  0.50723739309E+01  0.48558849303E+02  0.51017912128E+02  0.68586119248E+01 0.  0.
         22    1    3    3    0    0  0.13118535642E+02 -0.50723739309E+01 -0.36597475959E+02  0.39207144773E+02  0.00000000000E+00 0.  1.
         22    1    4    4    0    0 -0.88129046577E+01  0.66947268758E+00  0.35441602380E+02  0.36527012764E+02  0.00000000000E+00 0.  1.
         22    1    4    4    0    0 -0.43056309842E+01  0.44029012433E+01  0.13117246924E+02  0.14490899364E+02  0.00000000000E+00 0.  1.
<mgrwt>
<rscale>  0 0.89428667E+02</rscale>
<asrwt>0</asrwt>
<pdfrwt beam="1">  1        1 0.78604946E-02 0.89428667E+02</pdfrwt>
<pdfrwt beam="2">  1       -1 0.60202834E-02 0.89428667E+02</pdfrwt>
<totfact> 0.99281450E+04</totfact>
</mgrwt>
</event>
<event>
 7    1  0.3565607E-009  0.8925763E+02  0.7818608E-02  0.1304659E+00
         -1   -1    0    0    0  501 -0.00000000000E+00  0.00000000000E+00  0.46444302602E+01  0.46444329948E+01  0.50400000000E-02 0.  1.
          1   -1    0    0  501    0  0.00000000000E+00 -0.00000000000E+00 -0.42884285090E+03  0.42884285093E+03  0.50400000000E-02 0. -1.
         23    2    1    2    0    0 -0.71054273576E-14  0.88817841970E-15 -0.42419842064E+03  0.43348728393E+03  0.89257634132E+02 0.  0.
    9000005    2    3    3    0    0 -0.34012668381E+02  0.44546938248E+01 -0.34865009300E+03  0.35051586887E+03  0.11304028987E+02 0.  0.
         22    1    3    3    0    0  0.34012668381E+02 -0.44546938248E+01 -0.75548327640E+02  0.82971415058E+02  0.00000000000E+00 0.  1.
         22    1    4    4    0    0 -0.34042908952E+02  0.33805951189E+01 -0.31568232173E+03  0.31753059117E+03  0.00000000000E+00 0.  1.
         22    1    4    4    0    0  0.30240571470E-01  0.10740987059E+01 -0.32967771270E+02  0.32985277701E+02  0.00000000000E+00 0.  1.
<mgrwt>
<rscale>  0 0.89257634E+02</rscale>
<asrwt>0</asrwt>
<pdfrwt beam="2">  1        1 0.65975792E-01 0.89257634E+02</pdfrwt>
<pdfrwt beam="1">  1       -1 0.71452828E-03 0.89257634E+02</pdfrwt>
<totfact> 0.14429364E+05</totfact>
</mgrwt>
</event>
<event>
 7    1  0.3565607E-009  0.9806473E+02  0.7818608E-02  0.1284419E+00
         -1   -1    0    0    0  501 -0.00000000000E+00  0.00000000000E+00  0.84149448854E+01  0.84149463947E+01  0.50400000000E-02 0.  1.
          1   -1    0    0  501    0  0.00000000000E+00 -0.00000000000E+00 -0.28570270118E+03  0.28570270122E+03  0.50400000000E-02 0. -1.
         23    2    1    2    0    0  0.00000000000E+00 -0.71054273576E-14 -0.27728775629E+03  0.29411764762E+03  0.98064727859E+02 0.  0.
    9000005    2    3    3    0    0  0.19795604250E+02 -0.43866808110E+02 -0.14658068255E+03  0.15483196304E+03  0.13072011360E+02 0.  0.
         22    1    3    3    0    0 -0.19795604250E+02  0.43866808110E+02 -0.13070707374E+03  0.13928568458E+03  0.00000000000E+00 0. -1.
         22    1    4    4    0    0  0.35747403331E+01 -0.18981364792E+02 -0.44361392883E+02  0.48383924565E+02  0.00000000000E+00 0.  1.
         22    1    4    4    0    0  0.16220863917E+02 -0.24885443318E+02 -0.10221928967E+03  0.10644803848E+03  0.00000000000E+00 0.  1.
<mgrwt>
<rscale>  0 0.98064728E+02</rscale>
<asrwt>0</asrwt>
<pdfrwt beam="2">  1        1 0.43954254E-01 0.98064728E+02</pdfrwt>
<pdfrwt beam="1">  1       -1 0.12946072E-02 0.98064728E+02</pdfrwt>
<totfact> 0.10443883E+05</totfact>
</mgrwt>
</event>
<event>
 7    1  0.3565607E-009  0.9232377E+02  0.7818608E-02  0.1297320E+00
          1   -1    0    0  501    0  0.00000000000E+00  0.00000000000E+00  0.24484997163E+02  0.24484997682E+02  0.50400000000E-02 0. -1.
         -1   -1    0    0    0  501 -0.00000000000E+00 -0.00000000000E+00 -0.87029607608E+02  0.87029607754E+02  0.50400000000E-02 0.  1.
         23    2    1    2    0    0  0.00000000000E+00  0.00000000000E+00 -0.62544610444E+02  0.11151460544E+03  0.92323772290E+02 0.  0.
    9000005    2    3    3    0    0 -0.80189084074E+01  0.15759497729E+02 -0.82109225590E+02  0.85143431277E+02  0.13957589403E+02 0.  0.
         22    1    3    3    0    0  0.80189084074E+01 -0.15759497729E+02  0.19564615145E+02  0.26371174159E+02  0.00000000000E+00 0. -1.
         22    1    4    4    0    0  0.21203408060E+01  0.11207898666E+02 -0.42616080118E+02  0.44116245559E+02  0.00000000000E+00 0.  1.
         22    1    4    4    0    0 -0.10139249213E+02  0.45515990633E+01 -0.39493145472E+02  0.41027185718E+02  0.00000000000E+00 0.  1.
<mgrwt>
<rscale>  0 0.92323772E+02</rscale>
<asrwt>0</asrwt>
<pdfrwt beam="1">  1        1 0.37669227E-02 0.92323772E+02</pdfrwt>
<pdfrwt beam="2">  1       -1 0.13389170E-01 0.92323772E+02</pdfrwt>
<totfact> 0.80796949E+04</totfact>
</mgrwt>
</event>
<event>
 7    1  0.3565607E-009  0.9035461E+02  0.7818608E-02  0.1301995E+00
         -1   -1    0    0    0  501 -0.00000000000E+00  0.00000000000E+00  0.32596370358E+02  0.32596370748E+02  0.50400000000E-02 0. -1.
          1   -1    0    0  501    0  0.00000000000E+00 -0.00000000000E+00 -0.62613997568E+02  0.62613997771E+02  0.50400000000E-02 0.  1.
         23    2    1    2    0    0 -0.47184478547E-15 -0.17763568394E-14 -0.30017627210E+02  0.95210368519E+02  0.90354614327E+02 0.  0.
    9000005    2    3    3    0    0  0.18869911405E+00 -0.12639920030E+02  0.29726954178E+02  0.34143043451E+02  0.11056781884E+02 0.  0.
         22    1    3    3    0    0 -0.18869911405E+00  0.12639920030E+02 -0.59744581388E+02  0.61067325068E+02  0.00000000000E+00 0.  1.
         22    1    4    4    0    0  0.43833093074E+01 -0.35403400221E+01  0.52774347605E+01  0.77200210885E+01  0.00000000000E+00 0. -1.
         22    1    4    4    0    0 -0.41946101933E+01 -0.90995800080E+01  0.24449519418E+02  0.26423022362E+02  0.00000000000E+00 0. -1.
<mgrwt>
<rscale>  0 0.90354614E+02</rscale>
<asrwt>0</asrwt>
<pdfrwt beam="2">  1        1 0.96329227E-02 0.90354614E+02</pdfrwt>
<pdfrwt beam="1">  1       -1 0.50148263E-02 0.90354614E+02</pdfrwt>
<totfact> 0.99457340E+04</totfact>
</mgrwt>
</event>
<event>
 7    1  0.3565607E-009  0.9795392E+02  0.7818608E-02  0.1284658E+00
          1   -1    0    0  501    0  0.00000000000E+00  0.00000000000E+00  0.14171468977E+04  0.14171468977E+04  0.50400000000E-02 0. -1.
         -1   -1    0    0    0  501 -0.00000000000E+00 -0.00000000000E+00 -0.16926525044E+01  0.16926600078E+01  0.50400000000E-02 0.  1.
         23    2    1    2    0    0  0.00000000000E+00  0.44408920985E-15  0.14154542452E+04  0.14188395577E+04  0.97953919267E+02 0.  0.
    9000005    2    3    3    0    0  0.98672917466E+01  0.30652713421E+01  0.14008744922E+04  0.14009697918E+04  0.12659204697E+02 0.  0.
         22    1    3    3    0    0 -0.98672917466E+01 -0.30652713421E+01  0.14579753046E+02  0.17869765911E+02  0.00000000000E+00 0.  1.
         22    1    4    4    0    0  0.84112213729E+01  0.72529661430E+01  0.77478049845E+03  0.77486010024E+03  0.00000000000E+00 0. -1.
         22    1    4    4    0    0  0.14560703737E+01 -0.41876948008E+01  0.62609399371E+03  0.62610969158E+03  0.00000000000E+00 0. -1.
<mgrwt>
<rscale>  0 0.97953919E+02</rscale>
<asrwt>0</asrwt>
<pdfrwt beam="1">  1        1 0.21802284E+00 0.97953919E+02</pdfrwt>
<pdfrwt beam="2">  1       -1 0.26040837E-03 0.97953919E+02</pdfrwt>
<totfact> 0.95424046E+04</totfact>
</mgrwt>
</event>
<event>
 7    1  0.3565607E-009  0.9060684E+02  0.7818608E-02  0.1301389E+00
          1   -1    0    0  501    0  0.00000000000E+00  0.00000000000E+00  0.42854405834E+03  0.42854405837E+03  0.50400000000E-02 0. -1.
         -1   -1    0    0    0  501 -0.00000000000E+00 -0.00000000000E+00 -0.47892372373E+01  0.47892398892E+01  0.50400000000E-02 0.  1.
         23    2    1    2    0    0  0.00000000000E+00  0.00000000000E+00  0.42375482111E+03  0.43333329826E+03  0.90606837337E+02 0.  0.
    9000005    2    3    3    0    0  0.19622620838E+02 -0.17401113446E+02  0.38851388421E+03  0.38940415496E+03  0.21706407833E+01 0.  0.
         22    1    3    3    0    0 -0.19622620838E+02  0.17401113446E+02  0.35240936902E+02  0.43929143304E+02  0.00000000000E+00 0.  1.
         22    1    4    4    0    0  0.21439671004E+01 -0.26844587160E+01  0.44665945511E+02  0.44797874971E+02  0.00000000000E+00 0. -1.
         22    1    4    4    0    0  0.17478653737E+02 -0.14716654730E+02  0.34384793869E+03  0.34460627999E+03  0.00000000000E+00 0. -1.
<mgrwt>
<rscale>  0 0.90606837E+02</rscale>
<asrwt>0</asrwt>
<pdfrwt beam="1">  1        1 0.65929843E-01 0.90606837E+02</pdfrwt>
<pdfrwt beam="2">  1       -1 0.73680607E-03 0.90606837E+02</pdfrwt>
<totfact> 0.13865746E+05</totfact>
</mgrwt>
</event>
<event>
 7    1  0.3565607E-009  0.8736116E+02  0.7818608E-02  0.1309371E+00
         -1   -1    0    0    0  501 -0.00000000000E+00  0.00000000000E+00  0.30432170864E+02  0.30432171281E+02  0.50400000000E-02 0.  1.
          1   -1    0    0  501    0  0.00000000000E+00 -0.00000000000E+00 -0.62696575552E+02  0.62696575754E+02  0.50400000000E-02 0. -1.
         23    2    1    2    0    0  0.00000000000E+00  0.00000000000E+00 -0.32264404688E+02  0.93128747036E+02  0.87361156784E+02 0.  0.
    9000005    2    3    3    0    0  0.37131562639E+02  0.19020016969E+02 -0.25787197192E+02  0.50909459897E+02  0.13648427694E+02 0.  0.
         22    1    3    3    0    0 -0.37131562639E+02 -0.19020016969E+02 -0.64772074962E+01  0.42219287138E+02  0.00000000000E+00 0. -1.
         22    1    4    4    0    0  0.20283241853E+02  0.81476825746E+01 -0.58386393762E+01  0.22624861131E+02  0.00000000000E+00 0.  1.
         22    1    4    4    0    0  0.16848320786E+02  0.10872334394E+02 -0.19948557815E+02  0.28284598767E+02  0.00000000000E+00 0.  1.
<mgrwt>
<rscale>  0 0.87361157E+02</rscale>
<asrwt>0</asrwt>
<pdfrwt beam="2">  1        1 0.96456270E-02 0.87361157E+02</pdfrwt>
<pdfrwt beam="1">  1       -1 0.46818725E-02 0.87361157E+02</pdfrwt>
<totfact> 0.10915682E+05</totfact>
</mgrwt>
</event>
<event>
 7    1  0.3565607E-009  0.9099588E+02  0.7818608E-02  0.1300458E+00
          1   -1    0    0  501    0  0.00000000000E+00  0.00000000000E+00  0.13533693212E+02  0.13533694150E+02  0.50400000000E-02 0. -1.
         -1   -1    0    0    0  501 -0.00000000000E+00 -0.00000000000E+00 -0.15295622832E+03  0.15295622841E+03  0.50400000000E-02 0.  1.
         23    2    1    2    0    0  0.00000000000E+00  0.00000000000E+00 -0.13942253511E+03  0.16648992256E+03  0.90995884609E+02 0.  0.
    9000005    2    3    3    0    0 -0.29172230816E+02 -0.13779862054E+02 -0.15424962715E+02  0.38363806525E+02  0.13890591324E+02 0.  0.
         22    1    3    3    0    0  0.29172230816E+02  0.13779862054E+02 -0.12399757240E+03  0.12812611603E+03  0.00000000000E+00 0.  1.
         22    1    4    4    0    0 -0.45754623486E+01 -0.69096305072E+01 -0.85701093323E+01  0.11921603223E+02  0.00000000000E+00 0.  1.
         22    1    4    4    0    0 -0.24596768467E+02 -0.68702315469E+01 -0.68548533823E+01  0.26442203301E+02  0.00000000000E+00 0.  1.
<mgrwt>
<rscale>  0 0.90995885E+02</rscale>
<asrwt>0</asrwt>
<pdfrwt beam="1">  1        1 0.20821068E-02 0.90995885E+02</pdfrwt>
<pdfrwt beam="2">  1       -1 0.23531726E-01 0.90995885E+02</pdfrwt>
<totfact> 0.74830580E+04</totfact>
</mgrwt>
</event>
<event>
 7    1  0.3565607E-009  0.9321037E+02  0.7818608E-02  0.1295258E+00
          1   -1    0    0  501    0  0.00000000000E+00  0.00000000000E+00  0.25775570962E+02  0.25775571455E+02  0.50400000000E-02 0. -1.
         -1   -1    0    0    0  501 -0.00000000000E+00 -0.00000000000E+00 -0.84267515177E+02  0.84267515327E+02  0.50400000000E-02 0.  1.
         23    2    1    2    0    0  0.00000000000E+00  0.00000000000E+00 -0.58491944214E+02  0.11004308678E+03  0.93210371798E+02 0.  0.
    9000005    2    3    3    0    0 -0.99293846675E+01 -0.24350094560E+02 -0.73930962184E+02  0.79549102772E+02  0.13067241385E+02 0.  0.
         22    1    3    3    0    0  0.99293846675E+01  0.24350094560E+02  0.15439017970E+02  0.30493984011E+02  0.00000000000E+00 0. -1.
         22    1    4    4    0    0 -0.54353302996E+01 -0.13419989553E+01 -0.10076668504E+02  0.11527489961E+02  0.00000000000E+00 0.  1.
         22    1    4    4    0    0 -0.44940543679E+01 -0.23008095605E+02 -0.63854293680E+02  0.68021612811E+02  0.00000000000E+00 0.  1.
<mgrwt>
<rscale>  0 0.93210372E+02</rscale>
<asrwt>0</asrwt>
<pdfrwt beam="1">  1        1 0.39654725E-02 0.93210372E+02</pdfrwt>
<pdfrwt beam="2">  1       -1 0.12964233E-01 0.93210372E+02</pdfrwt>
<totfact> 0.79284180E+04</totfact>
</mgrwt>
</event>
<event>
 7    1  0.3565607E-009  0.8810894E+02  0.7818608E-02  0.1307497E+00
         -1   -1    0    0    0  501 -0.00000000000E+00  0.00000000000E+00  0.10562689410E+02  0.10562690612E+02  0.50400000000E-02 0.  1.
          1   -1    0    0  501    0  0.00000000000E+00 -0.00000000000E+00 -0.18374074203E+03  0.18374074210E+03  0.50400000000E-02 0. -1.
         23    2    1    2    0    0 -0.35527136788E-14  0.17763568394E-14 -0.17317805262E+03  0.19430343271E+03  0.88108944234E+02 0.  0.
    9000005    2    3    3    0    0 -0.28890801979E+02  0.15159914024E+02 -0.23634064755E+02  0.41241661721E+02  0.88206696136E+01 0.  0.
         22    1    3    3    0    0  0.28890801979E+02 -0.15159914024E+02 -0.14954398786E+03  0.15306177099E+03  0.00000000000E+00 0. -1.
         22    1    4    4    0    0 -0.57395637701E+01  0.37191286360E+01 -0.10181809244E+01  0.69145645183E+01  0.00000000000E+00 0. -1.
         22    1    4    4    0    0 -0.23151238209E+02  0.11440785388E+02 -0.22615883831E+02  0.34327097203E+02  0.00000000000E+00 0. -1.
<mgrwt>
<rscale>  0 0.88108944E+02</rscale>
<asrwt>0</asrwt>
<pdfrwt beam="2">  1        1 0.28267804E-01 0.88108944E+02</pdfrwt>
<pdfrwt beam="1">  1       -1 0.16250294E-02 0.88108944E+02</pdfrwt>
<totfact> 0.12767080E+05</totfact>
</mgrwt>
</event>
<event>
 7    1  0.3565607E-009  0.9023724E+02  0.7818608E-02  0.1302278E+00
         -1   -1    0    0    0  501 -0.00000000000E+00  0.00000000000E+00  0.76634127893E+01  0.76634144467E+01  0.50400000000E-02 0.  1.
          1   -1    0    0  501    0  0.00000000000E+00 -0.00000000000E+00 -0.26563747969E+03  0.26563747974E+03  0.50400000000E-02 0. -1.
         23    2    1    2    0    0  0.88817841970E-15  0.71054273576E-14 -0.25797406690E+03  0.27330089418E+03  0.90237240476E+02 0.  0.
    9000005    2    3    3    0    0 -0.62265134915E+01  0.41549458737E+02 -0.17731535751E+03  0.18235610658E+03  0.69200149421E+01 0.  0.
         22    1    3    3    0    0  0.62265134915E+01 -0.41549458737E+02 -0.80658709384E+02  0.90944787597E+02  0.00000000000E+00 0.  1.
         22    1    4    4    0    0 -0.66091125143E+01  0.23714615534E+02 -0.95918326108E+02  0.99027211622E+02  0.00000000000E+00 0.  1.
         22    1    4    4    0    0  0.38259902279E+00  0.17834843203E+02 -0.81397031405E+02  0.83328894963E+02  0.00000000000E+00 0.  1.
<mgrwt>
<rscale>  0 0.90237240E+02</rscale>
<asrwt>0</asrwt>
<pdfrwt beam="2">  1        1 0.40867298E-01 0.90237240E+02</pdfrwt>
<pdfrwt beam="1">  1       -1 0.11789869E-02 0.90237240E+02</pdfrwt>
<totfact> 0.12864840E+05</totfact>
</mgrwt>
</event>
<event>
 7    1  0.3565607E-009  0.9134138E+02  0.7818608E-02  0.1299635E+00
          1   -1    0    0  501    0  0.00000000000E+00  0.00000000000E+00  0.46610598832E+02  0.46610599104E+02  0.50400000000E-02 0. -1.
         -1   -1    0    0    0  501 -0.00000000000E+00 -0.00000000000E+00 -0.44749731182E+02  0.44749731466E+02  0.50400000000E-02 0.  1.
         23    2    1    2    0    0  0.71054273576E-14  0.00000000000E+00  0.18608676497E+01  0.91360330570E+02  0.91341377116E+02 0.  0.
    9000005    2    3    3    0    0 -0.40721231001E+02  0.18880413934E+02  0.12570018259E+01  0.46470985080E+02  0.11970117634E+02 0.  0.
         22    1    3    3    0    0  0.40721231001E+02 -0.18880413934E+02  0.60386582381E+00  0.44889345490E+02  0.00000000000E+00 0.  1.
         22    1    4    4    0    0 -0.17545993659E+02  0.44721879353E+01 -0.43264144719E+01  0.18616665131E+02  0.00000000000E+00 0. -1.
         22    1    4    4    0    0 -0.23175237342E+02  0.14408225998E+02  0.55834162979E+01  0.27854319950E+02  0.00000000000E+00 0. -1.
<mgrwt>
<rscale>  0 0.91341377E+02</rscale>
<asrwt>0</asrwt>
<pdfrwt beam="1">  1        1 0.71708614E-02 0.91341377E+02</pdfrwt>
<pdfrwt beam="2">  1       -1 0.68845740E-02 0.91341377E+02</pdfrwt>
<totfact> 0.92312555E+04</totfact>
</mgrwt>
</event>
<event>
 7    1  0.3565607E-009  0.9175355E+02  0.7818608E-02  0.1298660E+00
         -1   -1    0    0    0  501 -0.00000000000E+00  0.00000000000E+00  0.13100494542E+03  0.13100494552E+03  0.50400000000E-02 0.  1.
          1   -1    0    0  501    0  0.00000000000E+00 -0.00000000000E+00 -0.16065639459E+02  0.16065640249E+02  0.50400000000E-02 0. -1.
         23    2    1    2    0    0  0.00000000000E+00  0.00000000000E+00  0.11493930596E+03  0.14707058577E+03  0.91753545669E+02 0.  0.
    9000005    2    3    3    0    0 -0.80703124457E+01  0.22047599060E+02 -0.54114367552E+01  0.24451142611E+02  0.41651122352E+01 0.  0.
         22    1    3    3    0    0  0.80703124457E+01 -0.22047599060E+02  0.12035074272E+03  0.12261944316E+03  0.00000000000E+00 0.  1.
         22    1    4    4    0    0 -0.37832449410E+01  0.15919425901E+02 -0.38978583846E+01  0.16820652879E+02  0.00000000000E+00 0.  1.
         22    1    4    4    0    0 -0.42870675047E+01  0.61281731592E+01 -0.15135783706E+01  0.76304897315E+01  0.00000000000E+00 0.  1.
<mgrwt>
<rscale>  0 0.91753546E+02</rscale>
<asrwt>0</asrwt>
<pdfrwt beam="2">  1        1 0.24716369E-02 0.91753546E+02</pdfrwt>
<pdfrwt beam="1">  1       -1 0.20154607E-01 0.91753546E+02</pdfrwt>
<totfact> 0.75847125E+04</totfact>
</mgrwt>
</event>
<event>
 7    1  0.3565607E-009  0.9016581E+02  0.7818608E-02  0.1302451E+00
         -1   -1    0    0    0  501 -0.00000000000E+00  0.00000000000E+00  0.10741203677E+02  0.10741204859E+02  0.50400000000E-02 0.  1.
          1   -1    0    0  501    0  0.00000000000E+00 -0.00000000000E+00 -0.18922163965E+03  0.18922163971E+03  0.50400000000E-02 0. -1.
         23    2    1    2    0    0  0.35527136788E-14  0.00000000000E+00 -0.17848043597E+03  0.19996284457E+03  0.90165809406E+02 0.  0.
    9000005    2    3    3    0    0 -0.29068452920E+02  0.22700020725E+02 -0.14628073442E+03  0.15100279274E+03  0.65972915070E+01 0.  0.
         22    1    3    3    0    0  0.29068452920E+02 -0.22700020725E+02 -0.32199701549E+02  0.48960051837E+02  0.00000000000E+00 0.  1.
         22    1    4    4    0    0 -0.25706202162E+02  0.17659150732E+02 -0.11583806141E+03  0.11996295639E+03  0.00000000000E+00 0.  1.
         22    1    4    4    0    0 -0.33622507582E+01  0.50408699926E+01 -0.30442673006E+02  0.31039836343E+02  0.00000000000E+00 0.  1.
<mgrwt>
<rscale>  0 0.90165809E+02</rscale>
<asrwt>0</asrwt>
<pdfrwt beam="2">  1        1 0.29111019E-01 0.90165809E+02</pdfrwt>
<pdfrwt beam="1">  1       -1 0.16524931E-02 0.90165809E+02</pdfrwt>
<totfact> 0.12069995E+05</totfact>
</mgrwt>
</event>
<event>
 7    1  0.3565607E-009  0.9154838E+02  0.7818608E-02  0.1299145E+00
         -1   -1    0    0    0  501 -0.00000000000E+00  0.00000000000E+00  0.41611504220E+02  0.41611504526E+02  0.50400000000E-02 0.  1.
          1   -1    0    0  501    0  0.00000000000E+00 -0.00000000000E+00 -0.50353298316E+02  0.50353298568E+02  0.50400000000E-02 0. -1.
         23    2    1    2    0    0  0.00000000000E+00  0.00000000000E+00 -0.87417940952E+01  0.91964803093E+02  0.91548380892E+02 0.  0.
    9000005    2    3    3    0    0  0.36510105794E+02 -0.94248990222E+01 -0.29157765652E+02  0.49085572209E+02  0.11721840920E+02 0.  0.
         22    1    3    3    0    0 -0.36510105794E+02  0.94248990222E+01  0.20415971557E+02  0.42879230885E+02  0.00000000000E+00 0.  1.
         22    1    4    4    0    0  0.36632672697E+01 -0.11453324613E+01 -0.87100883042E+01  0.95182431049E+01  0.00000000000E+00 0.  1.
         22    1    4    4    0    0  0.32846838524E+02 -0.82795665609E+01 -0.20447677348E+02  0.39567329104E+02  0.00000000000E+00 0.  1.
<mgrwt>
<rscale>  0 0.91548381E+02</rscale>
<asrwt>0</asrwt>
<pdfrwt beam="2">  1        1 0.77466613E-02 0.91548381E+02</pdfrwt>
<pdfrwt beam="1">  1       -1 0.64017699E-02 0.91548381E+02</pdfrwt>
<totfact> 0.92801037E+04</totfact>
</mgrwt>
</event>
<event>
 7    1  0.3565607E-009  0.9077369E+02  0.7818608E-02  0.1300989E+00
          1   -1    0    0  501    0  0.00000000000E+00  0.00000000000E+00  0.17215024280E+02  0.17215025017E+02  0.50400000000E-02 0. -1.
         -1   -1    0    0    0  501 -0.00000000000E+00 -0.00000000000E+00 -0.11966092826E+03  0.11966092837E+03  0.50400000000E-02 0.  1.
         23    2    1    2    0    0  0.00000000000E+00  0.00000000000E+00 -0.10244590398E+03  0.13687595339E+03  0.90773693174E+02 0.  0.
    9000005    2    3    3    0    0 -0.35273014346E+02 -0.71187768137E+01 -0.12297221131E+02  0.39810781752E+02  0.11781942614E+02 0.  0.
         22    1    3    3    0    0  0.35273014346E+02  0.71187768137E+01 -0.90148682852E+02  0.97065171634E+02  0.00000000000E+00 0.  1.
         22    1    4    4    0    0  0.95109202033E+00 -0.33786511027E+00 -0.27526187013E+00  0.10461825658E+01  0.00000000000E+00 0.  1.
         22    1    4    4    0    0 -0.36224106366E+02 -0.67809117034E+01 -0.12021959260E+02  0.38764599186E+02  0.00000000000E+00 0.  1.
<mgrwt>
<rscale>  0 0.90773693E+02</rscale>
<asrwt>0</asrwt>
<pdfrwt beam="1">  1        1 0.26484654E-02 0.90773693E+02</pdfrwt>
<pdfrwt beam="2">  1       -1 0.18409373E-01 0.90773693E+02</pdfrwt>
<totfact> 0.79481052E+04</totfact>
</mgrwt>
</event>
<event>
 7    1  0.3565607E-009  0.9335132E+02  0.7818608E-02  0.1294933E+00
         -1   -1    0    0    0  501 -0.00000000000E+00  0.00000000000E+00  0.10186157320E+03  0.10186157332E+03  0.50400000000E-02 0.  1.
          1   -1    0    0  501    0  0.00000000000E+00 -0.00000000000E+00 -0.21388017470E+02  0.21388018064E+02  0.50400000000E-02 0. -1.
         23    2    1    2    0    0  0.00000000000E+00  0.00000000000E+00  0.80473555726E+02  0.12324959138E+03  0.93351318176E+02 0.  0.
    9000005    2    3    3    0    0 -0.20838976671E+02  0.38933505658E+02  0.22359278181E+02  0.50260893176E+02  0.87257808035E+01 0.  0.
         22    1    3    3    0    0  0.20838976671E+02 -0.38933505658E+02  0.58114277545E+02  0.72988698208E+02  0.00000000000E+00 0.  1.
         22    1    4    4    0    0 -0.21327901902E+02  0.37456532429E+02  0.20205385906E+02  0.47603874220E+02  0.00000000000E+00 0. -1.
         22    1    4    4    0    0  0.48892523147E+00  0.14769732284E+01  0.21538922755E+01  0.26570189562E+01  0.00000000000E+00 0. -1.
<mgrwt>
<rscale>  0 0.93351318E+02</rscale>
<asrwt>0</asrwt>
<pdfrwt beam="2">  1        1 0.32904643E-02 0.93351318E+02</pdfrwt>
<pdfrwt beam="1">  1       -1 0.15671011E-01 0.93351318E+02</pdfrwt>
<totfact> 0.76307133E+04</totfact>
</mgrwt>
</event>
<event>
 7    1  0.3565607E-009  0.1017158E+03  0.7818608E-02  0.1276729E+00
         -1   -1    0    0    0  501 -0.00000000000E+00  0.00000000000E+00  0.23871294824E+01  0.23871348029E+01  0.50400000000E-02 0.  1.
          1   -1    0    0  501    0  0.00000000000E+00 -0.00000000000E+00 -0.10835281796E+04  0.10835281796E+04  0.50400000000E-02 0. -1.
         23    2    1    2    0    0 -0.35527136788E-14  0.00000000000E+00 -0.10811410501E+04  0.10859153144E+04  0.10171577965E+03 0.  0.
    9000005    2    3    3    0    0  0.23978497531E+02 -0.59691332118E+01 -0.10145344749E+04  0.10148728288E+04  0.87211843478E+01 0.  0.
         22    1    3    3    0    0 -0.23978497531E+02  0.59691332118E+01 -0.66606575258E+02  0.71042485618E+02  0.00000000000E+00 0.  1.
         22    1    4    4    0    0  0.18177664885E+02 -0.25021088813E+01 -0.85256352844E+03  0.85276096186E+03  0.00000000000E+00 0. -1.
         22    1    4    4    0    0  0.58008326463E+01 -0.34670243305E+01 -0.16197094641E+03  0.16211186693E+03  0.00000000000E+00 0. -1.
<mgrwt>
<rscale>  0 0.10171578E+03</rscale>
<asrwt>0</asrwt>
<pdfrwt beam="2">  1        1 0.16669625E+00 0.10171578E+03</pdfrwt>
<pdfrwt beam="1">  1       -1 0.36725196E-03 0.10171578E+03</pdfrwt>
<totfact> 0.99238028E+04</totfact>
</mgrwt>
</event>
<event>
 7    1  0.3565607E-009  0.9119549E+02  0.7818608E-02  0.1299982E+00
         -1   -1    0    0    0  501 -0.00000000000E+00  0.00000000000E+00  0.18754018264E+02  0.18754018942E+02  0.50400000000E-02 0.  1.
          1   -1    0    0  501    0  0.00000000000E+00 -0.00000000000E+00 -0.11086446609E+03  0.11086446621E+03  0.50400000000E-02 0. -1.
         23    2    1    2    0    0  0.00000000000E+00  0.00000000000E+00 -0.92110447829E+02  0.12961848515E+03  0.91195488338E+02 0.  0.
    9000005    2    3    3    0    0 -0.13136824911E+02  0.28908381489E+02 -0.92058742800E+02  0.97865164655E+02  0.97215038916E+01 0.  0.
         22    1    3    3    0    0  0.13136824911E+02 -0.28908381489E+02 -0.51705029464E-01  0.31753320495E+02  0.00000000000E+00 0.  1.
         22    1    4    4    0    0 -0.10062273211E+02  0.18693236259E+02 -0.47184657377E+02  0.51740490100E+02  0.00000000000E+00 0. -1.
         22    1    4    4    0    0 -0.30745517003E+01  0.10215145230E+02 -0.44874085422E+02  0.46124674554E+02  0.00000000000E+00 0. -1.
<mgrwt>
<rscale>  0 0.91195488E+02</rscale>
<asrwt>0</asrwt>
<pdfrwt beam="2">  1        1 0.17056071E-01 0.91195488E+02</pdfrwt>
<pdfrwt beam="1">  1       -1 0.28852337E-02 0.91195488E+02</pdfrwt>
<totfact> 0.10622212E+05</totfact>
</mgrwt>
</event>
<event>
 7    1  0.3565607E-009  0.8947345E+02  0.7818608E-02  0.1304132E+00
         -1   -1    0    0    0  501 -0.00000000000E+00  0.00000000000E+00  0.29735361492E+01  0.29735404204E+01  0.50400000000E-02 0.  1.
          1   -1    0    0  501    0  0.00000000000E+00 -0.00000000000E+00 -0.67306163132E+03  0.67306163134E+03  0.50400000000E-02 0. -1.
         23    2    1    2    0    0 -0.88817841970E-15  0.00000000000E+00 -0.67008809517E+03  0.67603517176E+03  0.89473449503E+02 0.  0.
    9000005    2    3    3    0    0  0.72892888290E+01  0.34577314070E+02 -0.53827549454E+03  0.53956801064E+03  0.12016892258E+02 0.  0.
         22    1    3    3    0    0 -0.72892888290E+01 -0.34577314070E+02 -0.13181260063E+03  0.13646716112E+03  0.00000000000E+00 0.  1.
         22    1    4    4    0    0  0.44145322467E+01  0.33557133466E+02 -0.51166944869E+03  0.51278766954E+03  0.00000000000E+00 0. -1.
         22    1    4    4    0    0  0.28747565824E+01  0.10201806045E+01 -0.26606045846E+02  0.26780341100E+02  0.00000000000E+00 0. -1.
<mgrwt>
<rscale>  0 0.89473450E+02</rscale>
<asrwt>0</asrwt>
<pdfrwt beam="2">  1        1 0.10354782E+00 0.89473450E+02</pdfrwt>
<pdfrwt beam="1">  1       -1 0.45746797E-03 0.89473450E+02</pdfrwt>
<totfact> 0.14943649E+05</totfact>
</mgrwt>
</event>
<event>
 7    1  0.3565607E-009  0.9037703E+02  0.7818608E-02  0.1301941E+00
         -1   -1    0    0    0  501 -0.00000000000E+00  0.00000000000E+00  0.98757190172E+01  0.98757203033E+01  0.50400000000E-02 0.  1.
          1   -1    0    0  501    0  0.00000000000E+00 -0.00000000000E+00 -0.20676992262E+03  0.20676992268E+03  0.50400000000E-02 0. -1.
         23    2    1    2    0    0  0.00000000000E+00  0.00000000000E+00 -0.19689420360E+03  0.21664564298E+03  0.90377028120E+02 0.  0.
    9000005    2    3    3    0    0 -0.31001384727E+02 -0.19864564961E+02 -0.15968990427E+03  0.16430209816E+03  0.11774002605E+02 0.  0.
         22    1    3    3    0    0  0.31001384727E+02  0.19864564961E+02 -0.37204299331E+02  0.52343544824E+02  0.00000000000E+00 0.  1.
         22    1    4    4    0    0 -0.26838004466E+02 -0.15440564609E+02 -0.11109861624E+03  0.11533252815E+03  0.00000000000E+00 0. -1.
         22    1    4    4    0    0 -0.41633802613E+01 -0.44240003520E+01 -0.48591288033E+02  0.48969570010E+02  0.00000000000E+00 0. -1.
<mgrwt>
<rscale>  0 0.90377028E+02</rscale>
<asrwt>0</asrwt>
<pdfrwt beam="2">  1        1 0.31810754E-01 0.90377028E+02</pdfrwt>
<pdfrwt beam="1">  1       -1 0.15193416E-02 0.90377028E+02</pdfrwt>
<totfact> 0.12201907E+05</totfact>
</mgrwt>
</event>
<event>
 7    1  0.3565607E-009  0.8840492E+02  0.7818608E-02  0.1306761E+00
          1   -1    0    0  501    0  0.00000000000E+00  0.00000000000E+00  0.82761163013E+03  0.82761163014E+03  0.50400000000E-02 0. -1.
         -1   -1    0    0    0  501 -0.00000000000E+00 -0.00000000000E+00 -0.23608360977E+01  0.23608414775E+01  0.50400000000E-02 0.  1.
         23    2    1    2    0    0 -0.22204460493E-15  0.00000000000E+00  0.82525079403E+03  0.82997247162E+03  0.88404924075E+02 0.  0.
    9000005    2    3    3    0    0  0.12863252583E+01 -0.24735025226E+02  0.75514057508E+03  0.75561577114E+03  0.10219068115E+02 0.  0.
         22    1    3    3    0    0 -0.12863252583E+01  0.24735025226E+02  0.70110218952E+02  0.74356700485E+02  0.00000000000E+00 0.  1.
         22    1    4    4    0    0 -0.36850825186E+01 -0.45553971762E+01  0.13514148871E+03  0.13526844956E+03  0.00000000000E+00 0. -1.
         22    1    4    4    0    0  0.49714077770E+01 -0.20179628050E+02  0.61999908637E+03  0.62034732158E+03  0.00000000000E+00 0. -1.
<mgrwt>
<rscale>  0 0.88404924E+02</rscale>
<asrwt>0</asrwt>
<pdfrwt beam="1">  1        1 0.12732489E+00 0.88404924E+02</pdfrwt>
<pdfrwt beam="2">  1       -1 0.36320591E-03 0.88404924E+02</pdfrwt>
<totfact> 0.15278409E+05</totfact>
</mgrwt>
</event>
<event>
 7    1  0.3565607E-009  0.9127925E+02  0.7818608E-02  0.1299783E+00
          1   -1    0    0  501    0  0.00000000000E+00  0.00000000000E+00  0.39444143494E+02  0.39444143816E+02  0.50400000000E-02 0. -1.
         -1   -1    0    0    0  501 -0.00000000000E+00 -0.00000000000E+00 -0.52808230522E+02  0.52808230762E+02  0.50400000000E-02 0.  1.
         23    2    1    2    0    0  0.00000000000E+00  0.00000000000E+00 -0.13364087028E+02  0.92252374578E+02  0.91279251713E+02 0.  0.
    9000005    2    3    3    0    0  0.42723650435E+02 -0.15724767663E+02 -0.38190461760E+01  0.45736931665E+02  0.21686815862E+01 0.  0.
         22    1    3    3    0    0 -0.42723650435E+02  0.15724767663E+02 -0.95450408521E+01  0.46515442914E+02  0.00000000000E+00 0. -1.
         22    1    4    4    0    0  0.11831113209E+02 -0.44152818174E+01 -0.20341912149E+01  0.12790929880E+02  0.00000000000E+00 0. -1.
         22    1    4    4    0    0  0.30892537226E+02 -0.11309485846E+02 -0.17848549611E+01  0.32946001785E+02  0.00000000000E+00 0. -1.
<mgrwt>
<rscale>  0 0.91279252E+02</rscale>
<asrwt>0</asrwt>
<pdfrwt beam="1">  1        1 0.60683298E-02 0.91279252E+02</pdfrwt>
<pdfrwt beam="2">  1       -1 0.81243432E-02 0.91279252E+02</pdfrwt>
<totfact> 0.90183961E+04</totfact>
</mgrwt>
</event>
<event>
 7    1  0.3565607E-009  0.9218866E+02  0.7818608E-02  0.1297636E+00
          1   -1    0    0  501    0  0.00000000000E+00  0.00000000000E+00  0.11416308466E+03  0.11416308477E+03  0.50400000000E-02 0. -1.
         -1   -1    0    0    0  501 -0.00000000000E+00 -0.00000000000E+00 -0.18610984022E+02  0.18610984704E+02  0.50400000000E-02 0.  1.
         23    2    1    2    0    0  0.00000000000E+00  0.00000000000E+00  0.95552100642E+02  0.13277406948E+03  0.92188663018E+02 0.  0.
    9000005    2    3    3    0    0 -0.16878766791E+02  0.20659993407E+02 -0.54104952985E+01  0.28346228963E+02  0.79061457774E+01 0.  0.
         22    1    3    3    0    0  0.16878766791E+02 -0.20659993407E+02  0.10096259594E+03  0.10442784052E+03  0.00000000000E+00 0. -1.
         22    1    4    4    0    0 -0.14095708590E+02  0.19290724256E+02 -0.69518256301E+01  0.24882703281E+02  0.00000000000E+00 0. -1.
         22    1    4    4    0    0 -0.27830582005E+01  0.13692691518E+01  0.15413303316E+01  0.34635256818E+01  0.00000000000E+00 0. -1.
<mgrwt>
<rscale>  0 0.92188663E+02</rscale>
<asrwt>0</asrwt>
<pdfrwt beam="1">  1        1 0.17563551E-01 0.92188663E+02</pdfrwt>
<pdfrwt beam="2">  1       -1 0.28632284E-02 0.92188663E+02</pdfrwt>
<totfact> 0.10365644E+05</totfact>
</mgrwt>
</event>
<event>
 7    1  0.3565607E-009  0.9182890E+02  0.7818608E-02  0.1298482E+00
         -1   -1    0    0    0  501 -0.00000000000E+00  0.00000000000E+00  0.14410525253E+03  0.14410525262E+03  0.50400000000E-02 0.  1.
          1   -1    0    0  501    0  0.00000000000E+00 -0.00000000000E+00 -0.14629144101E+02  0.14629144969E+02  0.50400000000E-02 0. -1.
         23    2    1    2    0    0  0.00000000000E+00  0.00000000000E+00  0.12947610843E+03  0.15873439759E+03  0.91828896996E+02 0.  0.
    9000005    2    3    3    0    0 -0.18920138920E+02 -0.33620137206E+02  0.27595179224E+02  0.49794005546E+02  0.15154662298E+02 0.  0.
         22    1    3    3    0    0  0.18920138920E+02  0.33620137206E+02  0.10188092920E+03  0.10894039204E+03  0.00000000000E+00 0.  1.
         22    1    4    4    0    0 -0.15250248724E+01 -0.35697441063E+00  0.66022878889E+01  0.67855240741E+01  0.00000000000E+00 0. -1.
         22    1    4    4    0    0 -0.17395114047E+02 -0.33263162796E+02  0.20992891335E+02  0.43008481472E+02  0.00000000000E+00 0. -1.
<mgrwt>
<rscale>  0 0.91828897E+02</rscale>
<asrwt>0</asrwt>
<pdfrwt beam="2">  1        1 0.22506377E-02 0.91828897E+02</pdfrwt>
<pdfrwt beam="1">  1       -1 0.22170039E-01 0.91828897E+02</pdfrwt>
<totfact> 0.74100926E+04</totfact>
</mgrwt>
</event>
<event>
 7    1  0.3565607E-009  0.9393815E+02  0.7818608E-02  0.1293586E+00
          1   -1    0    0  501    0  0.00000000000E+00  0.00000000000E+00  0.20575961279E+03  0.20575961285E+03  0.50400000000E-02 0. -1.
         -1   -1    0    0    0  501 -0.00000000000E+00 -0.00000000000E+00 -0.10721706057E+02  0.10721707242E+02  0.50400000000E-02 0.  1.
         23    2    1    2    0    0  0.00000000000E+00  0.11102230246E-15  0.19503790673E+03  0.21648132009E+03  0.93938154584E+02 0.  0.
    9000005    2    3    3    0    0 -0.32462886016E+02  0.69663015213E+00  0.17535498349E+03  0.17851104580E+03  0.79056295264E+01 0.  0.
         22    1    3    3    0    0  0.32462886016E+02 -0.69663015213E+00  0.19682923245E+02  0.37970274288E+02  0.00000000000E+00 0.  1.
         22    1    4    4    0    0 -0.22349333112E+02 -0.87027345086E+00  0.13702028742E+03  0.13883374673E+03  0.00000000000E+00 0. -1.
         22    1    4    4    0    0 -0.10113552904E+02  0.15669036030E+01  0.38334696066E+02  0.39677299073E+02  0.00000000000E+00 0. -1.
<mgrwt>
<rscale>  0 0.93938155E+02</rscale>
<asrwt>0</asrwt>
<pdfrwt beam="1">  1        1 0.31655324E-01 0.93938155E+02</pdfrwt>
<pdfrwt beam="2">  1       -1 0.16494934E-02 0.93938155E+02</pdfrwt>
<totfact> 0.10988898E+05</totfact>
</mgrwt>
</event>
<event>
 7    1  0.3776767E-009  0.1068013E+03  0.7818608E-02  0.1266611E+00
          1   -1    0    0  501    0  0.00000000000E+00  0.00000000000E+00  0.55731469914E+01  0.55731492704E+01  0.50400000000E-02 0. -1.
         -1   -1    0    0    0  501 -0.00000000000E+00 -0.00000000000E+00 -0.51167251983E+03  0.51167251986E+03  0.50400000000E-02 0.  1.
         23    2    1    2    0    0 -0.88817841970E-15  0.00000000000E+00 -0.50609937284E+03  0.51724566913E+03  0.10680125019E+03 0.  0.
    9000005    2    3    3    0    0  0.48649879402E+01  0.12115895151E+02 -0.50356544474E+03  0.50394590167E+03  0.14589436153E+02 0.  0.
         22    1    3    3    0    0 -0.48649879402E+01 -0.12115895151E+02 -0.25339281037E+01  0.13299767464E+02  0.00000000000E+00 0. -1.
         22    1    4    4    0    0 -0.44485044131E+01  0.37321420625E+01 -0.87886834066E+02  0.88078451837E+02  0.00000000000E+00 0. -1.
         22    1    4    4    0    0  0.93134923532E+01  0.83837530881E+01 -0.41567861067E+03  0.41586744983E+03  0.00000000000E+00 0. -1.
<mgrwt>
<rscale>  0 0.10680125E+03</rscale>
<asrwt>0</asrwt>
<pdfrwt beam="1">  1        1 0.85740781E-03 0.10680125E+03</pdfrwt>
<pdfrwt beam="2">  1       -1 0.78718812E-01 0.10680125E+03</pdfrwt>
<totfact> 0.30545658E+04</totfact>
</mgrwt>
</event>
<event>
 7    1  0.3565607E-009  0.9006555E+02  0.7818608E-02  0.1302693E+00
         -1   -1    0    0    0  501 -0.00000000000E+00  0.00000000000E+00  0.14204788770E+03  0.14204788779E+03  0.50400000000E-02 0.  1.
          1   -1    0    0  501    0  0.00000000000E+00 -0.00000000000E+00 -0.14276529041E+02  0.14276529931E+02  0.50400000000E-02 0. -1.
         23    2    1    2    0    0  0.00000000000E+00  0.00000000000E+00  0.12777135866E+03  0.15632441772E+03  0.90065551029E+02 0.  0.
    9000005    2    3    3    0    0  0.17461204010E+02 -0.39005847321E+02  0.40582316603E+02  0.59225093184E+02  0.58598183554E+01 0.  0.
         22    1    3    3    0    0 -0.17461204010E+02  0.39005847321E+02  0.87189042060E+02  0.97099324539E+02  0.00000000000E+00 0.  1.
         22    1    4    4    0    0  0.11573712904E+02 -0.28197492691E+02  0.32172888785E+02  0.44318666465E+02  0.00000000000E+00 0. -1.
         22    1    4    4    0    0  0.58874911060E+01 -0.10808354630E+02  0.84094278180E+01  0.14906426720E+02  0.00000000000E+00 0. -1.
<mgrwt>
<rscale>  0 0.90065551E+02</rscale>
<asrwt>0</asrwt>
<pdfrwt beam="2">  1        1 0.21963892E-02 0.90065551E+02</pdfrwt>
<pdfrwt beam="1">  1       -1 0.21853521E-01 0.90065551E+02</pdfrwt>
<totfact> 0.78176542E+04</totfact>
</mgrwt>
</event>
<event>
 7    1  0.3565607E-009  0.8756548E+02  0.7818608E-02  0.1308857E+00
         -1   -1    0    0    0  501 -0.00000000000E+00  0.00000000000E+00  0.64880513828E+02  0.64880514024E+02  0.50400000000E-02 0.  1.
          1   -1    0    0  501    0  0.00000000000E+00 -0.00000000000E+00 -0.29545517183E+02  0.29545517613E+02  0.50400000000E-02 0. -1.
         23    2    1    2    0    0  0.00000000000E+00  0.00000000000E+00  0.35334996645E+02  0.94426031637E+02  0.87565481000E+02 0.  0.
    9000005    2    3    3    0    0  0.24770967540E+01 -0.22706174792E+02  0.57187217259E+02  0.62815496561E+02  0.12397677542E+02 0.  0.
         22    1    3    3    0    0 -0.24770967540E+01  0.22706174792E+02 -0.21852220614E+02  0.31610535075E+02  0.00000000000E+00 0. -1.
         22    1    4    4    0    0  0.17963870143E+01 -0.13801323839E+02  0.18729845539E+02  0.23334752194E+02  0.00000000000E+00 0.  1.
         22    1    4    4    0    0  0.68070973967E+00 -0.89048509523E+01  0.38457371720E+02  0.39480744368E+02  0.00000000000E+00 0.  1.
<mgrwt>
<rscale>  0 0.87565481E+02</rscale>
<asrwt>0</asrwt>
<pdfrwt beam="2">  1        1 0.45454643E-02 0.87565481E+02</pdfrwt>
<pdfrwt beam="1">  1       -1 0.99816175E-02 0.87565481E+02</pdfrwt>
<totfact> 0.97066805E+04</totfact>
</mgrwt>
</event>
<event>
 7    1  0.3565607E-009  0.8908388E+02  0.7818608E-02  0.1305085E+00
         -1   -1    0    0    0  501 -0.00000000000E+00  0.00000000000E+00  0.60743773040E+03  0.60743773042E+03  0.50400000000E-02 0.  1.
          1   -1    0    0  501    0  0.00000000000E+00 -0.00000000000E+00 -0.32661507684E+01  0.32661546570E+01  0.50400000000E-02 0. -1.
         23    2    1    2    0    0  0.00000000000E+00 -0.44408920985E-15  0.60417157963E+03  0.61070388507E+03  0.89083879657E+02 0.  0.
    9000005    2    3    3    0    0 -0.40275073912E+02  0.37333572815E+01  0.41487936971E+03  0.41713849490E+03  0.15608106441E+02 0.  0.
         22    1    3    3    0    0  0.40275073912E+02 -0.37333572815E+01  0.18929220992E+03  0.19356539017E+03  0.00000000000E+00 0. -1.
         22    1    4    4    0    0 -0.39399340735E+01 -0.37460294117E+01  0.31221123181E+02  0.31690919039E+02  0.00000000000E+00 0. -1.
         22    1    4    4    0    0 -0.36335139839E+02  0.74793866932E+01  0.38365824652E+03  0.38544757586E+03  0.00000000000E+00 0. -1.
<mgrwt>
<rscale>  0 0.89083880E+02</rscale>
<asrwt>0</asrwt>
<pdfrwt beam="2">  1        1 0.50248542E-03 0.89083880E+02</pdfrwt>
<pdfrwt beam="1">  1       -1 0.93451886E-01 0.89083880E+02</pdfrwt>
<totfact> 0.43829555E+04</totfact>
</mgrwt>
</event>
<event>
 7    1  0.3565607E-009  0.9298270E+02  0.7818608E-02  0.1295785E+00
         -1   -1    0    0    0  501 -0.00000000000E+00  0.00000000000E+00  0.84247741146E+01  0.84247756221E+01  0.50400000000E-02 0.  1.
          1   -1    0    0  501    0  0.00000000000E+00 -0.00000000000E+00 -0.25655828613E+03  0.25655828618E+03  0.50400000000E-02 0. -1.
         23    2    1    2    0    0  0.00000000000E+00  0.00000000000E+00 -0.24813351202E+03  0.26498306180E+03  0.92982704073E+02 0.  0.
    9000005    2    3    3    0    0 -0.29833469033E+02 -0.30514426508E+02 -0.17171743938E+03  0.17745830955E+03  0.13542767131E+02 0.  0.
         22    1    3    3    0    0  0.29833469033E+02  0.30514426508E+02 -0.76416072638E+02  0.87524752254E+02  0.00000000000E+00 0.  1.
         22    1    4    4    0    0 -0.44549390227E+01 -0.99583704496E+00 -0.83447275852E+01  0.95117112860E+01  0.00000000000E+00 0.  1.
         22    1    4    4    0    0 -0.25378530010E+02 -0.29518589463E+02 -0.16337271179E+03  0.16794659826E+03  0.00000000000E+00 0.  1.
<mgrwt>
<rscale>  0 0.92982704E+02</rscale>
<asrwt>0</asrwt>
<pdfrwt beam="2">  1        1 0.39470500E-01 0.92982704E+02</pdfrwt>
<pdfrwt beam="1">  1       -1 0.12961194E-02 0.92982704E+02</pdfrwt>
<totfact> 0.11794194E+05</totfact>
</mgrwt>
</event>
<event>
 7    1  0.3565607E-009  0.9237992E+02  0.7818608E-02  0.1297189E+00
         -1   -1    0    0    0  501 -0.00000000000E+00  0.00000000000E+00  0.10448016315E+02  0.10448017531E+02  0.50400000000E-02 0.  1.
          1   -1    0    0  501    0  0.00000000000E+00 -0.00000000000E+00 -0.20420261091E+03  0.20420261097E+03  0.50400000000E-02 0. -1.
         23    2    1    2    0    0  0.00000000000E+00  0.00000000000E+00 -0.19375459459E+03  0.21465062850E+03  0.92379918759E+02 0.  0.
    9000005    2    3    3    0    0 -0.32918737320E+02  0.10108084202E+02 -0.16654396927E+03  0.17076173738E+03  0.15390276847E+02 0.  0.
         22    1    3    3    0    0  0.32918737320E+02 -0.10108084202E+02 -0.27210625323E+02  0.43888891117E+02  0.00000000000E+00 0.  1.
         22    1    4    4    0    0 -0.30995408810E+02  0.12320242582E+02 -0.13410716706E+03  0.13819274945E+03  0.00000000000E+00 0. -1.
         22    1    4    4    0    0 -0.19233285098E+01 -0.22121583804E+01 -0.32436802214E+02  0.32568987935E+02  0.00000000000E+00 0. -1.
<mgrwt>
<rscale>  0 0.92379919E+02</rscale>
<asrwt>0</asrwt>
<pdfrwt beam="2">  1        1 0.31415783E-01 0.92379919E+02</pdfrwt>
<pdfrwt beam="1">  1       -1 0.16073874E-02 0.92379919E+02</pdfrwt>
<totfact> 0.11477366E+05</totfact>
</mgrwt>
</event>
<event>
 7    1  0.3565607E-009  0.9145317E+02  0.7818608E-02  0.1299370E+00
          1   -1    0    0  501    0  0.00000000000E+00  0.00000000000E+00  0.49204135392E+02  0.49204135650E+02  0.50400000000E-02 0. -1.
         -1   -1    0    0    0  501 -0.00000000000E+00 -0.00000000000E+00 -0.42494816895E+02  0.42494817194E+02  0.50400000000E-02 0.  1.
         23    2    1    2    0    0  0.35527136788E-14 -0.35527136788E-14  0.67093184967E+01  0.91698952844E+02  0.91453173800E+02 0.  0.
    9000005    2    3    3    0    0 -0.30137700434E+02  0.20140742517E+02  0.29682916810E+02  0.48783725756E+02  0.13595802727E+02 0.  0.
         22    1    3    3    0    0  0.30137700434E+02 -0.20140742517E+02 -0.22973598313E+02  0.42915227088E+02  0.00000000000E+00 0.  1.
         22    1    4    4    0    0 -0.16800794064E+01  0.74200717528E+00 -0.14634273374E+01  0.23483741251E+01  0.00000000000E+00 0.  1.
         22    1    4    4    0    0 -0.28457621027E+02  0.19398735341E+02  0.31146344147E+02  0.46435351631E+02  0.00000000000E+00 0.  1.
<mgrwt>
<rscale>  0 0.91453174E+02</rscale>
<asrwt>0</asrwt>
<pdfrwt beam="1">  1        1 0.75698670E-02 0.91453174E+02</pdfrwt>
<pdfrwt beam="2">  1       -1 0.65376642E-02 0.91453174E+02</pdfrwt>
<totfact> 0.92748942E+04</totfact>
</mgrwt>
</event>
<event>
 7    1  0.3565607E-009  0.9177910E+02  0.7818608E-02  0.1298600E+00
         -1   -1    0    0    0  501 -0.00000000000E+00  0.00000000000E+00  0.11552833718E+03  0.11552833729E+03  0.50400000000E-02 0.  1.
          1   -1    0    0  501    0  0.00000000000E+00 -0.00000000000E+00 -0.18228003006E+02  0.18228003703E+02  0.50400000000E-02 0. -1.
         23    2    1    2    0    0 -0.71054273576E-14 -0.44408920985E-15  0.97300334171E+02  0.13375634099E+03  0.91779102878E+02 0.  0.
    9000005    2    3    3    0    0  0.41250977354E+02  0.16246547631E+01  0.25155303772E+02  0.50634815215E+02  0.15060297749E+02 0.  0.
         22    1    3    3    0    0 -0.41250977354E+02 -0.16246547631E+01  0.72145030399E+02  0.83121525774E+02  0.00000000000E+00 0.  1.
         22    1    4    4    0    0  0.21989318679E+02  0.70382633472E+01  0.85047425994E+01  0.24604835573E+02  0.00000000000E+00 0. -1.
         22    1    4    4    0    0  0.19261658675E+02 -0.54136085841E+01  0.16650561173E+02  0.26029979642E+02  0.00000000000E+00 0. -1.
<mgrwt>
<rscale>  0 0.91779103E+02</rscale>
<asrwt>0</asrwt>
<pdfrwt beam="2">  1        1 0.28043081E-02 0.91779103E+02</pdfrwt>
<pdfrwt beam="1">  1       -1 0.17773591E-01 0.91779103E+02</pdfrwt>
<totfact> 0.77800566E+04</totfact>
</mgrwt>
</event>
<event>
 7    1  0.3565607E-009  0.9669767E+02  0.7818608E-02  0.1287398E+00
         -1   -1    0    0    0  501 -0.00000000000E+00  0.00000000000E+00  0.73183748424E+02  0.73183748597E+02  0.50400000000E-02 0.  1.
          1   -1    0    0  501    0  0.00000000000E+00 -0.00000000000E+00 -0.31941654652E+02  0.31941655049E+02  0.50400000000E-02 0. -1.
         23    2    1    2    0    0  0.00000000000E+00  0.00000000000E+00  0.41242093772E+02  0.10512540365E+03  0.96697674187E+02 0.  0.
    9000005    2    3    3    0    0  0.31525377747E+02 -0.27150250491E+02  0.47199267471E+02  0.63095967982E+02  0.47270267621E+01 0.  0.
         22    1    3    3    0    0 -0.31525377747E+02  0.27150250491E+02 -0.59571736990E+01  0.42029435664E+02  0.00000000000E+00 0. -1.
         22    1    4    4    0    0  0.16066870426E+02 -0.16924495193E+02  0.26008404878E+02  0.34943096416E+02  0.00000000000E+00 0. -1.
         22    1    4    4    0    0  0.15458507321E+02 -0.10225755298E+02  0.21190862592E+02  0.28152871566E+02  0.00000000000E+00 0. -1.
<mgrwt>
<rscale>  0 0.96697674E+02</rscale>
<asrwt>0</asrwt>
<pdfrwt beam="2">  1        1 0.49141008E-02 0.96697674E+02</pdfrwt>
<pdfrwt beam="1">  1       -1 0.11259038E-01 0.96697674E+02</pdfrwt>
<totfact> 0.73927075E+04</totfact>
</mgrwt>
</event>
<event>
 7    1  0.3565607E-009  0.8949518E+02  0.7818608E-02  0.1304079E+00
          1   -1    0    0  501    0  0.00000000000E+00  0.00000000000E+00  0.14256063951E+02  0.14256064842E+02  0.50400000000E-02 0. -1.
         -1   -1    0    0    0  501 -0.00000000000E+00 -0.00000000000E+00 -0.14045580088E+03  0.14045580097E+03  0.50400000000E-02 0.  1.
         23    2    1    2    0    0  0.00000000000E+00  0.00000000000E+00 -0.12619973693E+03  0.15471186581E+03  0.89495183236E+02 0.  0.
    9000005    2    3    3    0    0  0.27824638287E+02 -0.16482705409E+02 -0.11504531767E+03  0.12050205519E+03  0.15473529519E+02 0.  0.
         22    1    3    3    0    0 -0.27824638287E+02  0.16482705409E+02 -0.11154419262E+02  0.34209810617E+02  0.00000000000E+00 0. -1.
         22    1    4    4    0    0  0.16865369405E+02 -0.93205641750E+01 -0.40927808890E+02  0.45237143392E+02  0.00000000000E+00 0. -1.
         22    1    4    4    0    0  0.10959268882E+02 -0.71621412339E+01 -0.74117508776E+02  0.75264911803E+02  0.00000000000E+00 0. -1.
<mgrwt>
<rscale>  0 0.89495183E+02</rscale>
<asrwt>0</asrwt>
<pdfrwt beam="1">  1        1 0.21932408E-02 0.89495183E+02</pdfrwt>
<pdfrwt beam="2">  1       -1 0.21608584E-01 0.89495183E+02</pdfrwt>
<totfact> 0.79674468E+04</totfact>
</mgrwt>
</event>
<event>
 7    1  0.3565607E-009  0.9015995E+02  0.7818608E-02  0.1302465E+00
         -1   -1    0    0    0  501 -0.00000000000E+00  0.00000000000E+00  0.46614071095E+01  0.46614098342E+01  0.50400000000E-02 0.  1.
          1   -1    0    0  501    0  0.00000000000E+00 -0.00000000000E+00 -0.43596356062E+03  0.43596356065E+03  0.50400000000E-02 0. -1.
         23    2    1    2    0    0 -0.71054273576E-14  0.00000000000E+00 -0.43130215351E+03  0.44062497049E+03  0.90159952255E+02 0.  0.
    9000005    2    3    3    0    0  0.39880392219E+02 -0.19002712449E+02 -0.22353084564E+03  0.22820918685E+03  0.12721841239E+02 0.  0.
         22    1    3    3    0    0 -0.39880392219E+02  0.19002712449E+02 -0.20777130787E+03  0.21241578364E+03  0.00000000000E+00 0. -1.
         22    1    4    4    0    0  0.34477648580E+02 -0.19955223619E+02 -0.20679868267E+03  0.21060060388E+03  0.00000000000E+00 0. -1.
         22    1    4    4    0    0  0.54027436394E+01  0.95251117017E+00 -0.16732162969E+02  0.17608582963E+02  0.00000000000E+00 0. -1.
<mgrwt>
<rscale>  0 0.90159952E+02</rscale>
<asrwt>0</asrwt>
<pdfrwt beam="2">  1        1 0.67071285E-01 0.90159952E+02</pdfrwt>
<pdfrwt beam="1">  1       -1 0.71714011E-03 0.90159952E+02</pdfrwt>
<totfact> 0.14084936E+05</totfact>
</mgrwt>
</event>
<event>
 7    1  0.3565607E-009  0.9109323E+02  0.7818608E-02  0.1300226E+00
          1   -1    0    0  501    0  0.00000000000E+00  0.00000000000E+00  0.22084443815E+03  0.22084443821E+03  0.50400000000E-02 0. -1.
         -1   -1    0    0    0  501 -0.00000000000E+00 -0.00000000000E+00 -0.93934620675E+01  0.93934634196E+01  0.50400000000E-02 0.  1.
         23    2    1    2    0    0  0.00000000000E+00  0.00000000000E+00  0.21145097608E+03  0.23023790163E+03  0.91093227298E+02 0.  0.
    9000005    2    3    3    0    0 -0.27563972846E+02  0.33490850782E+02  0.13482057984E+03  0.14218321797E+03  0.12572551045E+02 0.  0.
         22    1    3    3    0    0  0.27563972846E+02 -0.33490850782E+02  0.76630396249E+02  0.88054683660E+02  0.00000000000E+00 0.  1.
         22    1    4    4    0    0 -0.12941034014E+02  0.25141345534E+02  0.81384374931E+02  0.86156683429E+02  0.00000000000E+00 0. -1.
         22    1    4    4    0    0 -0.14622938832E+02  0.83495052473E+01  0.53436204904E+02  0.56026534540E+02  0.00000000000E+00 0. -1.
<mgrwt>
<rscale>  0 0.91093227E+02</rscale>
<asrwt>0</asrwt>
<pdfrwt beam="1">  1        1 0.33976069E-01 0.91093227E+02</pdfrwt>
<pdfrwt beam="2">  1       -1 0.14451481E-02 0.91093227E+02</pdfrwt>
<totfact> 0.12101060E+05</totfact>
</mgrwt>
</event>
<event>
 7    1  0.3565607E-009  0.9149778E+02  0.7818608E-02  0.1299265E+00
          1   -1    0    0  501    0  0.00000000000E+00  0.00000000000E+00  0.85513579455E+01  0.85513594308E+01  0.50400000000E-02 0. -1.
         -1   -1    0    0    0  501 -0.00000000000E+00 -0.00000000000E+00 -0.24475184113E+03  0.24475184118E+03  0.50400000000E-02 0.  1.
         23    2    1    2    0    0  0.00000000000E+00  0.00000000000E+00 -0.23620048318E+03  0.25330320061E+03  0.91497776934E+02 0.  0.
    9000005    2    3    3    0    0  0.29765782353E+02  0.28836490346E+02 -0.73232688200E+02  0.85148369648E+02  0.13025868805E+02 0.  0.
         22    1    3    3    0    0 -0.29765782353E+02 -0.28836490346E+02 -0.16296779498E+03  0.16815483096E+03  0.00000000000E+00 0.  1.
         22    1    4    4    0    0  0.46257275350E+01  0.59635314823E+01 -0.54101553015E+01  0.92860563941E+01  0.00000000000E+00 0. -1.
         22    1    4    4    0    0  0.25140054818E+02  0.22872958864E+02 -0.67822532899E+02  0.75862313254E+02  0.00000000000E+00 0. -1.
<mgrwt>
<rscale>  0 0.91497777E+02</rscale>
<asrwt>0</asrwt>
<pdfrwt beam="1">  1        1 0.13155938E-02 0.91497777E+02</pdfrwt>
<pdfrwt beam="2">  1       -1 0.37654124E-01 0.91497777E+02</pdfrwt>
<totfact> 0.64632227E+04</totfact>
</mgrwt>
</event>
<event>
 7    1  0.3565607E-009  0.9128136E+02  0.7818608E-02  0.1299778E+00
         -1   -1    0    0    0  501 -0.00000000000E+00  0.00000000000E+00  0.75708510966E+01  0.75708527742E+01  0.50400000000E-02 0.  1.
          1   -1    0    0  501    0  0.00000000000E+00 -0.00000000000E+00 -0.27514360515E+03  0.27514360520E+03  0.50400000000E-02 0. -1.
         23    2    1    2    0    0 -0.17763568394E-14  0.71054273576E-14 -0.26757275405E+03  0.28271445797E+03  0.91281356441E+02 0.  0.
    9000005    2    3    3    0    0  0.15517007711E+02 -0.37295203975E+02 -0.79110366932E+02  0.89971673079E+02  0.14308809624E+02 0.  0.
         22    1    3    3    0    0 -0.15517007711E+02  0.37295203975E+02 -0.18846238712E+03  0.19274278489E+03  0.00000000000E+00 0. -1.
         22    1    4    4    0    0  0.47655866088E+01 -0.72975038672E+01 -0.31482046089E+02  0.32666245643E+02  0.00000000000E+00 0. -1.
         22    1    4    4    0    0  0.10751421102E+02 -0.29997700108E+02 -0.47628320842E+02  0.57305427437E+02  0.00000000000E+00 0. -1.
<mgrwt>
<rscale>  0 0.91281356E+02</rscale>
<asrwt>0</asrwt>
<pdfrwt beam="2">  1        1 0.42329778E-01 0.91281356E+02</pdfrwt>
<pdfrwt beam="1">  1       -1 0.11647467E-02 0.91281356E+02</pdfrwt>
<totfact> 0.12561963E+05</totfact>
</mgrwt>
</event>
<event>
 7    1  0.3565607E-009  0.9039414E+02  0.7818608E-02  0.1301900E+00
          1   -1    0    0  501    0  0.00000000000E+00  0.00000000000E+00  0.16948030146E+04  0.16948030146E+04  0.50400000000E-02 0. -1.
         -1   -1    0    0    0  501 -0.00000000000E+00 -0.00000000000E+00 -0.12053118799E+01  0.12053224172E+01  0.50400000000E-02 0.  1.
         23    2    1    2    0    0  0.00000000000E+00  0.00000000000E+00  0.16935977027E+04  0.16960083370E+04  0.90394140289E+02 0.  0.
    9000005    2    3    3    0    0 -0.32566603460E+01 -0.19397081650E+02  0.16077641023E+04  0.16079500633E+04  0.14530820987E+02 0.  0.
         22    1    3    3    0    0  0.32566603460E+01  0.19397081650E+02  0.85833600441E+02  0.88058273761E+02  0.00000000000E+00 0.  1.
         22    1    4    4    0    0 -0.17209105748E+01 -0.20978072782E+02  0.15515501660E+04  0.15516929331E+04  0.00000000000E+00 0. -1.
         22    1    4    4    0    0 -0.15357497713E+01  0.15809911314E+01  0.56213936259E+02  0.56257130127E+02  0.00000000000E+00 0. -1.
<mgrwt>
<rscale>  0 0.90394140E+02</rscale>
<asrwt>0</asrwt>
<pdfrwt beam="1">  1        1 0.26073907E+00 0.90394140E+02</pdfrwt>
<pdfrwt beam="2">  1       -1 0.18543331E-03 0.90394140E+02</pdfrwt>
<totfact> 0.10080007E+05</totfact>
</mgrwt>
</event>
<event>
 7    1  0.3565607E-009  0.9284344E+02  0.7818608E-02  0.1296108E+00
          1   -1    0    0  501    0  0.00000000000E+00  0.00000000000E+00  0.12883286909E+03  0.12883286919E+03  0.50400000000E-02 0. -1.
         -1   -1    0    0    0  501 -0.00000000000E+00 -0.00000000000E+00 -0.16726911363E+02  0.16726912122E+02  0.50400000000E-02 0.  1.
         23    2    1    2    0    0  0.00000000000E+00  0.00000000000E+00  0.11210595773E+03  0.14555978131E+03  0.92843439065E+02 0.  0.
    9000005    2    3    3    0    0  0.10778159284E+02  0.44563429196E+02  0.62042999387E+02  0.77674821732E+02  0.90540719533E+01 0.  0.
         22    1    3    3    0    0 -0.10778159284E+02 -0.44563429196E+02  0.50062958343E+02  0.67884959581E+02  0.00000000000E+00 0. -1.
         22    1    4    4    0    0  0.19807165595E+01  0.26539404847E+02  0.37381361719E+02  0.45887138194E+02  0.00000000000E+00 0.  1.
         22    1    4    4    0    0  0.87974427241E+01  0.18024024349E+02  0.24661637668E+02  0.31787683538E+02  0.00000000000E+00 0.  1.
<mgrwt>
<rscale>  0 0.92843439E+02</rscale>
<asrwt>0</asrwt>
<pdfrwt beam="1">  1        1 0.19820441E-01 0.92843439E+02</pdfrwt>
<pdfrwt beam="2">  1       -1 0.25733711E-02 0.92843439E+02</pdfrwt>
<totfact> 0.10386142E+05</totfact>
</mgrwt>
</event>
<event>
 7    1  0.3565607E-009  0.9108702E+02  0.7818608E-02  0.1300240E+00
         -1   -1    0    0    0  501 -0.00000000000E+00  0.00000000000E+00  0.30342534031E+02  0.30342534450E+02  0.50400000000E-02 0.  1.
          1   -1    0    0  501    0  0.00000000000E+00 -0.00000000000E+00 -0.68359858491E+02  0.68359858677E+02  0.50400000000E-02 0. -1.
         23    2    1    2    0    0  0.00000000000E+00  0.00000000000E+00 -0.38017324460E+02  0.98702393126E+02  0.91087021303E+02 0.  0.
    9000005    2    3    3    0    0 -0.83685287360E+01 -0.42939082994E+02 -0.97983753663E+01  0.46643712683E+02  0.12877525053E+02 0.  0.
         22    1    3    3    0    0  0.83685287360E+01  0.42939082994E+02 -0.28218949093E+02  0.52058680443E+02  0.00000000000E+00 0. -1.
         22    1    4    4    0    0 -0.45612692298E+01 -0.39986871400E+02 -0.10911345635E+02  0.41699071032E+02  0.00000000000E+00 0.  1.
         22    1    4    4    0    0 -0.38072595061E+01 -0.29522115937E+01  0.11129702687E+01  0.49446416514E+01  0.00000000000E+00 0.  1.
<mgrwt>
<rscale>  0 0.91087021E+02</rscale>
<asrwt>0</asrwt>
<pdfrwt beam="2">  1        1 0.10516901E-01 0.91087021E+02</pdfrwt>
<pdfrwt beam="1">  1       -1 0.46680822E-02 0.91087021E+02</pdfrwt>
<totfact> 0.98575270E+04</totfact>
</mgrwt>
</event>
<event>
 7    1  0.3565607E-009  0.9784249E+02  0.7818608E-02  0.1284899E+00
          1   -1    0    0  501    0  0.00000000000E+00  0.00000000000E+00  0.68865232629E+01  0.68865251072E+01  0.50400000000E-02 0. -1.
         -1   -1    0    0    0  501 -0.00000000000E+00 -0.00000000000E+00 -0.34753209091E+03  0.34753209094E+03  0.50400000000E-02 0.  1.
         23    2    1    2    0    0  0.00000000000E+00  0.00000000000E+00 -0.34064556765E+03  0.35441861605E+03  0.97842488970E+02 0.  0.
    9000005    2    3    3    0    0 -0.45363700413E+01 -0.23171794016E+02 -0.32528711397E+03  0.32625138704E+03  0.84113220820E+01 0.  0.
         22    1    3    3    0    0  0.45363700413E+01  0.23171794016E+02 -0.15358453679E+02  0.28167229016E+02  0.00000000000E+00 0. -1.
         22    1    4    4    0    0  0.15810488431E+01 -0.33285957292E+01 -0.80829601908E+02  0.80913557638E+02  0.00000000000E+00 0.  1.
         22    1    4    4    0    0 -0.61174188844E+01 -0.19843198286E+02 -0.24445751206E+03  0.24533782940E+03  0.00000000000E+00 0.  1.
<mgrwt>
<rscale>  0 0.97842489E+02</rscale>
<asrwt>0</asrwt>
<pdfrwt beam="1">  1        1 0.10594655E-02 0.97842489E+02</pdfrwt>
<pdfrwt beam="2">  1       -1 0.53466462E-01 0.97842489E+02</pdfrwt>
<totfact> 0.47333440E+04</totfact>
</mgrwt>
</event>
<event>
 7    1  0.3565607E-009  0.8910960E+02  0.7818608E-02  0.1305022E+00
          1   -1    0    0  501    0  0.00000000000E+00  0.00000000000E+00  0.15035717319E+04  0.15035717319E+04  0.50400000000E-02 0. -1.
         -1   -1    0    0    0  501 -0.00000000000E+00 -0.00000000000E+00 -0.13202714460E+01  0.13202810658E+01  0.50400000000E-02 0.  1.
         23    2    1    2    0    0  0.00000000000E+00  0.00000000000E+00  0.15022514605E+04  0.15048920130E+04  0.89109597001E+02 0.  0.
    9000005    2    3    3    0    0 -0.18889559055E+01 -0.22177975058E+02  0.14028088805E+04  0.14029888361E+04  0.30803441401E+01 0.  0.
         22    1    3    3    0    0  0.18889559055E+01  0.22177975058E+02  0.99442580036E+02  0.10190317687E+03  0.00000000000E+00 0.  1.
         22    1    4    4    0    0 -0.39097512459E+00 -0.11264569424E+01  0.12493244973E+03  0.12493813975E+03  0.00000000000E+00 0. -1.
         22    1    4    4    0    0 -0.14979807809E+01 -0.21051518116E+02  0.12778764307E+04  0.12780506964E+04  0.00000000000E+00 0. -1.
<mgrwt>
<rscale>  0 0.89109597E+02</rscale>
<asrwt>0</asrwt>
<pdfrwt beam="1">  1        1 0.23131807E+00 0.89109597E+02</pdfrwt>
<pdfrwt beam="2">  1       -1 0.20312001E-03 0.89109597E+02</pdfrwt>
<totfact> 0.11719593E+05</totfact>
</mgrwt>
</event>
<event>
 7    1  0.3565607E-009  0.8969819E+02  0.7818608E-02  0.1303584E+00
          1   -1    0    0  501    0  0.00000000000E+00  0.00000000000E+00  0.96197233803E+01  0.96197247006E+01  0.50400000000E-02 0. -1.
         -1   -1    0    0    0  501 -0.00000000000E+00 -0.00000000000E+00 -0.20909555013E+03  0.20909555019E+03  0.50400000000E-02 0.  1.
         23    2    1    2    0    0  0.17763568394E-14  0.00000000000E+00 -0.19947582675E+03  0.21871527489E+03  0.89698194036E+02 0.  0.
    9000005    2    3    3    0    0  0.13121341612E+02 -0.32865959832E+02 -0.16500531143E+03  0.16931327749E+03  0.13707377965E+02 0.  0.
         22    1    3    3    0    0 -0.13121341612E+02  0.32865959832E+02 -0.34470515314E+02  0.49401997403E+02  0.00000000000E+00 0. -1.
         22    1    4    4    0    0 -0.27789029899E+00 -0.12303639152E+02 -0.37512502379E+02  0.39479673177E+02  0.00000000000E+00 0.  1.
         22    1    4    4    0    0  0.13399231911E+02 -0.20562320679E+02 -0.12749280905E+03  0.12983360431E+03  0.00000000000E+00 0.  1.
<mgrwt>
<rscale>  0 0.89698194E+02</rscale>
<asrwt>0</asrwt>
<pdfrwt beam="1">  1        1 0.14799577E-02 0.89698194E+02</pdfrwt>
<pdfrwt beam="2">  1       -1 0.32168543E-01 0.89698194E+02</pdfrwt>
<totfact> 0.71513180E+04</totfact>
</mgrwt>
</event>
<event>
 7    1  0.3565607E-009  0.9171950E+02  0.7818608E-02  0.1298740E+00
          1   -1    0    0  501    0  0.00000000000E+00  0.00000000000E+00  0.54190939507E+02  0.54190939741E+02  0.50400000000E-02 0. -1.
         -1   -1    0    0    0  501 -0.00000000000E+00 -0.00000000000E+00 -0.38809374348E+02  0.38809374675E+02  0.50400000000E-02 0.  1.
         23    2    1    2    0    0  0.00000000000E+00  0.17763568394E-14  0.15381565159E+02  0.93000314416E+02  0.91719495936E+02 0.  0.
    9000005    2    3    3    0    0  0.43066386017E+02 -0.14853798370E+02  0.63459746308E+01  0.46556899094E+02  0.72058676504E+01 0.  0.
         22    1    3    3    0    0 -0.43066386017E+02  0.14853798370E+02  0.90355905284E+01  0.46443415322E+02  0.00000000000E+00 0. -1.
         22    1    4    4    0    0  0.20140682255E+02 -0.10478849089E+02  0.44942311602E+01  0.23144145559E+02  0.00000000000E+00 0.  1.
         22    1    4    4    0    0  0.22925703762E+02 -0.43749492815E+01  0.18517434706E+01  0.23412753535E+02  0.00000000000E+00 0.  1.
<mgrwt>
<rscale>  0 0.91719496E+02</rscale>
<asrwt>0</asrwt>
<pdfrwt beam="1">  1        1 0.83370676E-02 0.91719496E+02</pdfrwt>
<pdfrwt beam="2">  1       -1 0.59706731E-02 0.91719496E+02</pdfrwt>
<totfact> 0.93345725E+04</totfact>
</mgrwt>
</event>
<event>
 7    1  0.3565607E-009  0.9258035E+02  0.7818608E-02  0.1296721E+00
         -1   -1    0    0    0  501 -0.00000000000E+00  0.00000000000E+00  0.45020066483E+02  0.45020066766E+02  0.50400000000E-02 0.  1.
          1   -1    0    0  501    0  0.00000000000E+00 -0.00000000000E+00 -0.47596117365E+02  0.47596117632E+02  0.50400000000E-02 0. -1.
         23    2    1    2    0    0 -0.35527136788E-14  0.00000000000E+00 -0.25760508817E+01  0.92616184398E+02  0.92580351988E+02 0.  0.
    9000005    2    3    3    0    0 -0.21337863459E+02  0.38713102061E+02  0.89965005329E+01  0.46922282896E+02  0.12913362153E+02 0.  0.
         22    1    3    3    0    0  0.21337863459E+02 -0.38713102061E+02 -0.11572551415E+02  0.45693901502E+02  0.00000000000E+00 0. -1.
         22    1    4    4    0    0 -0.17251079567E+02  0.34184775514E+02  0.11994387286E+02  0.40125602171E+02  0.00000000000E+00 0. -1.
         22    1    4    4    0    0 -0.40867838918E+01  0.45283265472E+01 -0.29978867529E+01  0.67966807252E+01  0.00000000000E+00 0. -1.
<mgrwt>
<rscale>  0 0.92580352E+02</rscale>
<asrwt>0</asrwt>
<pdfrwt beam="2">  1        1 0.73224797E-02 0.92580352E+02</pdfrwt>
<pdfrwt beam="1">  1       -1 0.69261641E-02 0.92580352E+02</pdfrwt>
<totfact> 0.89165635E+04</totfact>
</mgrwt>
</event>
<event>
 7    1  0.3565607E-009  0.1039390E+03  0.7818608E-02  0.1272224E+00
          1   -1    0    0  501    0  0.00000000000E+00  0.00000000000E+00  0.69023410555E+03  0.69023410557E+03  0.50400000000E-02 0. -1.
         -1   -1    0    0    0  501 -0.00000000000E+00 -0.00000000000E+00 -0.39129139222E+01  0.39129171681E+01  0.50400000000E-02 0.  1.
         23    2    1    2    0    0  0.00000000000E+00  0.00000000000E+00  0.68632119163E+03  0.69414702274E+03  0.10393897775E+03 0.  0.
    9000005    2    3    3    0    0 -0.34397374251E+02 -0.15402281801E+02  0.58054342950E+03  0.58185568469E+03  0.10244736578E+02 0.  0.
         22    1    3    3    0    0  0.34397374251E+02  0.15402281801E+02  0.10577776213E+03  0.11229133805E+03  0.00000000000E+00 0.  1.
         22    1    4    4    0    0 -0.11572588751E+01 -0.26198378071E+01  0.23292640205E+02  0.23468060976E+02  0.00000000000E+00 0.  1.
         22    1    4    4    0    0 -0.33240115376E+02 -0.12782443994E+02  0.55725078929E+03  0.55838762371E+03  0.00000000000E+00 0.  1.
<mgrwt>
<rscale>  0 0.10393898E+03</rscale>
<asrwt>0</asrwt>
<pdfrwt beam="1">  1        1 0.10619001E+00 0.10393898E+03</pdfrwt>
<pdfrwt beam="2">  1       -1 0.60198618E-03 0.10393898E+03</pdfrwt>
<totfact> 0.10032530E+05</totfact>
</mgrwt>
</event>
<event>
 7    1  0.3565607E-009  0.9146724E+02  0.7818608E-02  0.1299337E+00
         -1   -1    0    0    0  501 -0.00000000000E+00  0.00000000000E+00  0.46163066511E+02  0.46163066786E+02  0.50400000000E-02 0.  1.
          1   -1    0    0  501    0  0.00000000000E+00 -0.00000000000E+00 -0.45308172851E+02  0.45308173131E+02  0.50400000000E-02 0. -1.
         23    2    1    2    0    0  0.00000000000E+00  0.00000000000E+00  0.85489366039E+00  0.91471239917E+02  0.91467244896E+02 0.  0.
    9000005    2    3    3    0    0  0.41798056049E+01 -0.43675365973E+02  0.82220668804E+01  0.46982099568E+02  0.14652881229E+02 0.  0.
         22    1    3    3    0    0 -0.41798056049E+01  0.43675365973E+02 -0.73671732200E+01  0.44489140349E+02  0.00000000000E+00 0. -1.
         22    1    4    4    0    0  0.93031932821E+01 -0.29212088740E+02  0.31382439335E+01  0.30817918631E+02  0.00000000000E+00 0. -1.
         22    1    4    4    0    0 -0.51233876772E+01 -0.14463277233E+02  0.50838229469E+01  0.16164180937E+02  0.00000000000E+00 0. -1.
<mgrwt>
<rscale>  0 0.91467245E+02</rscale>
<asrwt>0</asrwt>
<pdfrwt beam="2">  1        1 0.69704882E-02 0.91467245E+02</pdfrwt>
<pdfrwt beam="1">  1       -1 0.71020103E-02 0.91467245E+02</pdfrwt>
<totfact> 0.91564326E+04</totfact>
</mgrwt>
</event>
<event>
 7    1  0.3565607E-009  0.9286097E+02  0.7818608E-02  0.1296068E+00
         -1   -1    0    0    0  501 -0.00000000000E+00  0.00000000000E+00  0.23131233580E+03  0.23131233586E+03  0.50400000000E-02 0. -1.
          1   -1    0    0  501    0  0.00000000000E+00 -0.00000000000E+00 -0.93198215617E+01  0.93198229245E+01  0.50400000000E-02 0.  1.
         23    2    1    2    0    0  0.00000000000E+00  0.00000000000E+00  0.22199251424E+03  0.24063215878E+03  0.92860968448E+02 0.  0.
    9000005    2    3    3    0    0  0.80461557248E+01 -0.41673626972E+02  0.72168297597E+02  0.84912128921E+02  0.14155375406E+02 0.  0.
         22    1    3    3    0    0 -0.80461557248E+01  0.41673626972E+02  0.14982421664E+03  0.15572002986E+03  0.00000000000E+00 0. -1.
         22    1    4    4    0    0  0.88039557468E+00 -0.34801628401E+02  0.56000081584E+02  0.65938892720E+02  0.00000000000E+00 0. -1.
         22    1    4    4    0    0  0.71657601501E+01 -0.68719985706E+01  0.16168216013E+02  0.18973236201E+02  0.00000000000E+00 0. -1.
<mgrwt>
<rscale>  0 0.92860968E+02</rscale>
<asrwt>0</asrwt>
<pdfrwt beam="2">  1        1 0.14338187E-02 0.92860968E+02</pdfrwt>
<pdfrwt beam="1">  1       -1 0.35586517E-01 0.92860968E+02</pdfrwt>
<totfact> 0.63337986E+04</totfact>
</mgrwt>
</event>
<event>
 7    1  0.3565607E-009  0.8986447E+02  0.7818608E-02  0.1303180E+00
          1   -1    0    0  501    0  0.00000000000E+00  0.00000000000E+00  0.16666725459E+03  0.16666725467E+03  0.50400000000E-02 0. -1.
         -1   -1    0    0    0  501 -0.00000000000E+00 -0.00000000000E+00 -0.12113391539E+02  0.12113392588E+02  0.50400000000E-02 0.  1.
         23    2    1    2    0    0  0.00000000000E+00  0.00000000000E+00  0.15455386306E+03  0.17878064726E+03  0.89864471561E+02 0.  0.
    9000005    2    3    3    0    0  0.33516172397E+02 -0.18873671325E+02  0.34060314786E+02  0.52296480440E+02  0.97605092911E+01 0.  0.
         22    1    3    3    0    0 -0.33516172397E+02  0.18873671325E+02  0.12049354827E+03  0.12648416682E+03  0.00000000000E+00 0. -1.
         22    1    4    4    0    0  0.91839018900E+01 -0.18677493796E+01  0.44758481352E+01  0.10385844126E+02  0.00000000000E+00 0. -1.
         22    1    4    4    0    0  0.24332270507E+02 -0.17005921946E+02  0.29584466651E+02  0.41910636314E+02  0.00000000000E+00 0. -1.
<mgrwt>
<rscale>  0 0.89864472E+02</rscale>
<asrwt>0</asrwt>
<pdfrwt beam="1">  1        1 0.25641115E-01 0.89864472E+02</pdfrwt>
<pdfrwt beam="2">  1       -1 0.18635988E-02 0.89864472E+02</pdfrwt>
<totfact> 0.11889235E+05</totfact>
</mgrwt>
</event>
<event>
 7    1  0.3565607E-009  0.9153168E+02  0.7818608E-02  0.1299184E+00
          1   -1    0    0  501    0  0.00000000000E+00  0.00000000000E+00  0.27639518577E+03  0.27639518581E+03  0.50400000000E-02 0. -1.
         -1   -1    0    0    0  501 -0.00000000000E+00 -0.00000000000E+00 -0.75779602174E+01  0.75779618934E+01  0.50400000000E-02 0.  1.
         23    2    1    2    0    0 -0.71054273576E-14  0.00000000000E+00  0.26881722555E+03  0.28397314771E+03  0.91531676845E+02 0.  0.
    9000005    2    3    3    0    0  0.42961281247E+02  0.12399563598E+02  0.15508650497E+03  0.16176800188E+03  0.10846268639E+02 0.  0.
         22    1    3    3    0    0 -0.42961281247E+02 -0.12399563598E+02  0.11373072058E+03  0.12220514583E+03  0.00000000000E+00 0. -1.
         22    1    4    4    0    0  0.29451015596E+02  0.13615791719E+02  0.10901763075E+03  0.11374355330E+03  0.00000000000E+00 0. -1.
         22    1    4    4    0    0  0.13510265651E+02 -0.12162281213E+01  0.46068874222E+02  0.48024448574E+02  0.00000000000E+00 0. -1.
<mgrwt>
<rscale>  0 0.91531677E+02</rscale>
<asrwt>0</asrwt>
<pdfrwt beam="1">  1        1 0.42522332E-01 0.91531677E+02</pdfrwt>
<pdfrwt beam="2">  1       -1 0.11658403E-02 0.91531677E+02</pdfrwt>
<totfact> 0.12481451E+05</totfact>
</mgrwt>
</event>
<event>
 7    1  0.3565607E-009  0.9085350E+02  0.7818608E-02  0.1300798E+00
         -1   -1    0    0    0  501 -0.00000000000E+00  0.00000000000E+00  0.34478856655E+03  0.34478856659E+03  0.50400000000E-02 0.  1.
          1   -1    0    0  501    0  0.00000000000E+00 -0.00000000000E+00 -0.59850864850E+01  0.59850886071E+01  0.50400000000E-02 0. -1.
         23    2    1    2    0    0 -0.71054273576E-14  0.00000000000E+00  0.33880348007E+03  0.35077365519E+03  0.90853503366E+02 0.  0.
    9000005    2    3    3    0    0 -0.43149106799E+02 -0.13724812645E+02  0.15759771409E+03  0.16399639340E+03  0.27498478168E+01 0.  0.
         22    1    3    3    0    0  0.43149106799E+02  0.13724812645E+02  0.18120576597E+03  0.18677726179E+03  0.00000000000E+00 0. -1.
         22    1    4    4    0    0 -0.29429922707E+02 -0.96791989240E+01  0.10322817983E+03  0.10777691939E+03  0.00000000000E+00 0. -1.
         22    1    4    4    0    0 -0.13719184091E+02 -0.40456137209E+01  0.54369534260E+02  0.56219474012E+02  0.00000000000E+00 0. -1.
<mgrwt>
<rscale>  0 0.90853503E+02</rscale>
<asrwt>0</asrwt>
<pdfrwt beam="2">  1        1 0.92078288E-03 0.90853503E+02</pdfrwt>
<pdfrwt beam="1">  1       -1 0.53044385E-01 0.90853503E+02</pdfrwt>
<totfact> 0.57701614E+04</totfact>
</mgrwt>
</event>
<event>
 7    1  0.3565607E-009  0.9217096E+02  0.7818608E-02  0.1297678E+00
          1   -1    0    0  501    0  0.00000000000E+00  0.00000000000E+00  0.16385859687E+03  0.16385859695E+03  0.50400000000E-02 0. -1.
         -1   -1    0    0    0  501 -0.00000000000E+00 -0.00000000000E+00 -0.12961609559E+02  0.12961610538E+02  0.50400000000E-02 0.  1.
         23    2    1    2    0    0 -0.35527136788E-14  0.00000000000E+00  0.15089698731E+03  0.17682020749E+03  0.92170955272E+02 0.  0.
    9000005    2    3    3    0    0  0.24146350847E+02 -0.23102233109E+02  0.13501110642E+03  0.13981857718E+03  0.14299518611E+02 0.  0.
         22    1    3    3    0    0 -0.24146350847E+02  0.23102233109E+02  0.15885880887E+02  0.37001630307E+02  0.00000000000E+00 0.  1.
         22    1    4    4    0    0  0.12086724884E+01  0.16988676704E+01  0.14971346216E+02  0.15115827734E+02  0.00000000000E+00 0. -1.
         22    1    4    4    0    0  0.22937678358E+02 -0.24801100780E+02  0.12003976021E+03  0.12470274945E+03  0.00000000000E+00 0. -1.
<mgrwt>
<rscale>  0 0.92170955E+02</rscale>
<asrwt>0</asrwt>
<pdfrwt beam="1">  1        1 0.25209014E-01 0.92170955E+02</pdfrwt>
<pdfrwt beam="2">  1       -1 0.19940939E-02 0.92170955E+02</pdfrwt>
<totfact> 0.11070132E+05</totfact>
</mgrwt>
</event>
<event>
 7    1  0.3565607E-009  0.7448457E+02  0.7818608E-02  0.1345475E+00
         -1   -1    0    0    0  501 -0.00000000000E+00  0.00000000000E+00  0.47612507018E+01  0.47612533694E+01  0.50400000000E-02 0.  1.
          1   -1    0    0  501    0  0.00000000000E+00 -0.00000000000E+00 -0.29130737404E+03  0.29130737408E+03  0.50400000000E-02 0. -1.
         23    2    1    2    0    0 -0.35527136788E-14  0.00000000000E+00 -0.28654612334E+03  0.29606862745E+03  0.74484571300E+02 0.  0.
    9000005    2    3    3    0    0 -0.19853739541E+02 -0.21944315967E+02 -0.23021830410E+03  0.23244043247E+03  0.12343545913E+02 0.  0.
         22    1    3    3    0    0  0.19853739541E+02  0.21944315967E+02 -0.56327819235E+02  0.63628194983E+02  0.00000000000E+00 0.  1.
         22    1    4    4    0    0 -0.19022160052E+02 -0.13578191676E+02 -0.18203290067E+03  0.18352707372E+03  0.00000000000E+00 0. -1.
         22    1    4    4    0    0 -0.83157948863E+00 -0.83661242913E+01 -0.48185403432E+02  0.48913358748E+02  0.00000000000E+00 0. -1.
<mgrwt>
<rscale>  0 0.74484571E+02</rscale>
<asrwt>0</asrwt>
<pdfrwt beam="2">  1        1 0.44816505E-01 0.74484571E+02</pdfrwt>
<pdfrwt beam="1">  1       -1 0.73250054E-03 0.74484571E+02</pdfrwt>
<totfact> 0.21714730E+05</totfact>
</mgrwt>
</event>
<event>
 7    1  0.3565607E-009  0.9094317E+02  0.7818608E-02  0.1300584E+00
          1   -1    0    0  501    0  0.00000000000E+00  0.00000000000E+00  0.18513916293E+03  0.18513916300E+03  0.50400000000E-02 0. -1.
         -1   -1    0    0    0  501 -0.00000000000E+00 -0.00000000000E+00 -0.11168167322E+02  0.11168168459E+02  0.50400000000E-02 0.  1.
         23    2    1    2    0    0 -0.35527136788E-14 -0.35527136788E-14  0.17397099561E+03  0.19630733146E+03  0.90943174956E+02 0.  0.
    9000005    2    3    3    0    0 -0.24906629189E+02 -0.30282650746E+02  0.13612273770E+03  0.14181082019E+03  0.65977185311E+01 0.  0.
         22    1    3    3    0    0  0.24906629189E+02  0.30282650746E+02  0.37848257909E+02  0.54496511269E+02  0.00000000000E+00 0. -1.
         22    1    4    4    0    0 -0.80442959347E+01 -0.14471407537E+02  0.52207705954E+02  0.54770219044E+02  0.00000000000E+00 0.  1.
         22    1    4    4    0    0 -0.16862333254E+02 -0.15811243209E+02  0.83915031748E+02  0.87040601146E+02  0.00000000000E+00 0.  1.
<mgrwt>
<rscale>  0 0.90943175E+02</rscale>
<asrwt>0</asrwt>
<pdfrwt beam="1">  1        1 0.28482947E-01 0.90943175E+02</pdfrwt>
<pdfrwt beam="2">  1       -1 0.17181798E-02 0.90943175E+02</pdfrwt>
<totfact> 0.11746074E+05</totfact>
</mgrwt>
</event>
<event>
 7    1  0.3565607E-009  0.8790989E+02  0.7818608E-02  0.1307994E+00
          1   -1    0    0  501    0  0.00000000000E+00  0.00000000000E+00  0.13073324502E+04  0.13073324502E+04  0.50400000000E-02 0. -1.
         -1   -1    0    0    0  501 -0.00000000000E+00 -0.00000000000E+00 -0.14778426202E+01  0.14778512143E+01  0.50400000000E-02 0.  1.
         23    2    1    2    0    0  0.00000000000E+00  0.35527136788E-14  0.13058546075E+04  0.13088103014E+04  0.87909891230E+02 0.  0.
    9000005    2    3    3    0    0 -0.11823618721E+02 -0.25765682850E+02  0.11488439498E+04  0.11492608889E+04  0.12429861113E+02 0.  0.
         22    1    3    3    0    0  0.11823618721E+02  0.25765682850E+02  0.15701065776E+03  0.15954941248E+03  0.00000000000E+00 0.  1.
         22    1    4    4    0    0 -0.50489086063E+01 -0.11214920462E+02  0.28164088941E+03  0.28190930546E+03  0.00000000000E+00 0. -1.
         22    1    4    4    0    0 -0.67747101142E+01 -0.14550762388E+02  0.86720306038E+03  0.86735158345E+03  0.00000000000E+00 0. -1.
<mgrwt>
<rscale>  0 0.87909891E+02</rscale>
<asrwt>0</asrwt>
<pdfrwt beam="1">  1        1 0.20112830E+00 0.87909891E+02</pdfrwt>
<pdfrwt beam="2">  1       -1 0.22736081E-03 0.87909891E+02</pdfrwt>
<totfact> 0.13398025E+05</totfact>
</mgrwt>
</event>
<event>
 7    1  0.3565607E-009  0.9146285E+02  0.7818608E-02  0.1299347E+00
         -1   -1    0    0    0  501 -0.00000000000E+00  0.00000000000E+00  0.20197460810E+02  0.20197461439E+02  0.50400000000E-02 0.  1.
          1   -1    0    0  501    0  0.00000000000E+00 -0.00000000000E+00 -0.10354585198E+03  0.10354585210E+03  0.50400000000E-02 0. -1.
         23    2    1    2    0    0  0.00000000000E+00  0.00000000000E+00 -0.83348391169E+02  0.12374331354E+03  0.91462852216E+02 0.  0.
    9000005    2    3    3    0    0  0.33972025341E+02 -0.26870034174E+02 -0.57176613110E+02  0.73136404831E+02  0.14271348309E+02 0.  0.
         22    1    3    3    0    0 -0.33972025341E+02  0.26870034174E+02 -0.26171778059E+02  0.50606908709E+02  0.00000000000E+00 0.  1.
         22    1    4    4    0    0  0.17568831366E+02 -0.22082613735E+02 -0.31472960958E+02  0.42271183286E+02  0.00000000000E+00 0. -1.
         22    1    4    4    0    0  0.16403193976E+02 -0.47874204389E+01 -0.25703652152E+02  0.30865221545E+02  0.00000000000E+00 0. -1.
<mgrwt>
<rscale>  0 0.91462852E+02</rscale>
<asrwt>0</asrwt>
<pdfrwt beam="2">  1        1 0.15930131E-01 0.91462852E+02</pdfrwt>
<pdfrwt beam="1">  1       -1 0.31073018E-02 0.91462852E+02</pdfrwt>
<totfact> 0.10416785E+05</totfact>
</mgrwt>
</event>
<event>
 7    1  0.3565607E-009  0.9174190E+02  0.7818608E-02  0.1298687E+00
          1   -1    0    0  501    0  0.00000000000E+00  0.00000000000E+00  0.12025598493E+02  0.12025599549E+02  0.50400000000E-02 0. -1.
         -1   -1    0    0    0  501 -0.00000000000E+00 -0.00000000000E+00 -0.17497209094E+03  0.17497209102E+03  0.50400000000E-02 0.  1.
         23    2    1    2    0    0  0.35527136788E-14  0.35527136788E-14 -0.16294649245E+03  0.18699769057E+03  0.91741903594E+02 0.  0.
    9000005    2    3    3    0    0 -0.26614684962E+02 -0.22768123045E+02 -0.14001340020E+03  0.14513296075E+03  0.15267454815E+02 0.  0.
         22    1    3    3    0    0  0.26614684962E+02  0.22768123045E+02 -0.22933092247E+02  0.41864729817E+02  0.00000000000E+00 0. -1.
         22    1    4    4    0    0 -0.26610314662E+02 -0.15232719400E+02 -0.11372050715E+03  0.11778157043E+03  0.00000000000E+00 0.  1.
         22    1    4    4    0    0 -0.43702999296E-02 -0.75354036452E+01 -0.26292893056E+02  0.27351390320E+02  0.00000000000E+00 0.  1.
<mgrwt>
<rscale>  0 0.91741904E+02</rscale>
<asrwt>0</asrwt>
<pdfrwt beam="1">  1        1 0.18500923E-02 0.91741904E+02</pdfrwt>
<pdfrwt beam="2">  1       -1 0.26918781E-01 0.91741904E+02</pdfrwt>
<totfact> 0.70853824E+04</totfact>
</mgrwt>
</event>
<event>
 7    1  0.3565607E-009  0.9115495E+02  0.7818608E-02  0.1300079E+00
          1   -1    0    0  501    0  0.00000000000E+00  0.00000000000E+00  0.10609550835E+04  0.10609550835E+04  0.50400000000E-02 0. -1.
         -1   -1    0    0    0  501 -0.00000000000E+00 -0.00000000000E+00 -0.19579553667E+01  0.19579618535E+01  0.50400000000E-02 0.  1.
         23    2    1    2    0    0  0.00000000000E+00  0.00000000000E+00  0.10589971281E+04  0.10629130454E+04  0.91154948377E+02 0.  0.
    9000005    2    3    3    0    0  0.22472115384E+02 -0.10894651287E+02  0.97325908851E+03  0.97361186488E+03  0.79448526276E+01 0.  0.
         22    1    3    3    0    0 -0.22472115384E+02  0.10894651287E+02  0.85738039616E+02  0.89301180472E+02  0.00000000000E+00 0.  1.
         22    1    4    4    0    0  0.11918042358E+02 -0.95809388702E+01  0.64199349078E+03  0.64217558060E+03  0.00000000000E+00 0. -1.
         22    1    4    4    0    0  0.10554073026E+02 -0.13137124172E+01  0.33126559773E+03  0.33143628428E+03  0.00000000000E+00 0. -1.
<mgrwt>
<rscale>  0 0.91154948E+02</rscale>
<asrwt>0</asrwt>
<pdfrwt beam="1">  1        1 0.16322417E+00 0.91154948E+02</pdfrwt>
<pdfrwt beam="2">  1       -1 0.30122382E-03 0.91154948E+02</pdfrwt>
<totfact> 0.13374331E+05</totfact>
</mgrwt>
</event>
<event>
 7    1  0.3565607E-009  0.9452491E+02  0.7818608E-02  0.1292250E+00
          1   -1    0    0  501    0  0.00000000000E+00  0.00000000000E+00  0.11019758443E+03  0.11019758454E+03  0.50400000000E-02 0. -1.
         -1   -1    0    0    0  501 -0.00000000000E+00 -0.00000000000E+00 -0.20270312562E+02  0.20270313189E+02  0.50400000000E-02 0.  1.
         23    2    1    2    0    0  0.00000000000E+00  0.00000000000E+00  0.89927271865E+02  0.13046789773E+03  0.94524907370E+02 0.  0.
    9000005    2    3    3    0    0  0.33807870420E+02  0.19611588632E+02  0.12504296746E+02  0.43738989129E+02  0.15137873757E+02 0.  0.
         22    1    3    3    0    0 -0.33807870420E+02 -0.19611588632E+02  0.77422975119E+02  0.86728908602E+02  0.00000000000E+00 0. -1.
         22    1    4    4    0    0  0.34119616797E+02  0.21054453295E+02  0.13052936013E+02  0.42164171906E+02  0.00000000000E+00 0.  1.
         22    1    4    4    0    0 -0.31174637655E+00 -0.14428646636E+01 -0.54863926719E+00  0.15748172231E+01  0.00000000000E+00 0.  1.
<mgrwt>
<rscale>  0 0.94524907E+02</rscale>
<asrwt>0</asrwt>
<pdfrwt beam="1">  1        1 0.16953474E-01 0.94524907E+02</pdfrwt>
<pdfrwt beam="2">  1       -1 0.31185097E-02 0.94524907E+02</pdfrwt>
<totfact> 0.96227430E+04</totfact>
</mgrwt>
</event>
<event>
 7    1  0.3565607E-009  0.9094277E+02  0.7818608E-02  0.1300585E+00
          1   -1    0    0  501    0  0.00000000000E+00  0.00000000000E+00  0.26488056355E+02  0.26488056835E+02  0.50400000000E-02 0. -1.
         -1   -1    0    0    0  501 -0.00000000000E+00 -0.00000000000E+00 -0.78059597291E+02  0.78059597453E+02  0.50400000000E-02 0.  1.
         23    2    1    2    0    0  0.00000000000E+00  0.00000000000E+00 -0.51571540936E+02  0.10454765429E+03  0.90942774219E+02 0.  0.
    9000005    2    3    3    0    0 -0.26230422091E+02 -0.23796550139E+01 -0.67632532690E+02  0.73698776558E+02  0.12792669268E+02 0.  0.
         22    1    3    3    0    0  0.26230422091E+02  0.23796550139E+01  0.16060991755E+02  0.30848877730E+02  0.00000000000E+00 0. -1.
         22    1    4    4    0    0 -0.21578724782E+02  0.76277976991E+00 -0.39545986795E+02  0.45056722781E+02  0.00000000000E+00 0. -1.
         22    1    4    4    0    0 -0.46516973091E+01 -0.31424347838E+01 -0.28086545895E+02  0.28642053777E+02  0.00000000000E+00 0. -1.
<mgrwt>
<rscale>  0 0.90942774E+02</rscale>
<asrwt>0</asrwt>
<pdfrwt beam="1">  1        1 0.40750857E-02 0.90942774E+02</pdfrwt>
<pdfrwt beam="2">  1       -1 0.12009169E-01 0.90942774E+02</pdfrwt>
<totfact> 0.85562117E+04</totfact>
</mgrwt>
</event>
<event>
 7    1  0.3565607E-009  0.9060372E+02  0.7818608E-02  0.1301396E+00
         -1   -1    0    0    0  501 -0.00000000000E+00  0.00000000000E+00  0.34855993168E+01  0.34856029606E+01  0.50400000000E-02 0.  1.
          1   -1    0    0  501    0  0.00000000000E+00 -0.00000000000E+00 -0.58878183477E+03  0.58878183479E+03  0.50400000000E-02 0. -1.
         23    2    1    2    0    0 -0.17763568394E-14  0.11102230246E-15 -0.58529623545E+03  0.59226743775E+03  0.90603722803E+02 0.  0.
    9000005    2    3    3    0    0 -0.14524710709E+02  0.69685731623E+00 -0.57266292296E+03  0.57300469091E+03  0.13420120701E+02 0.  0.
         22    1    3    3    0    0  0.14524710709E+02 -0.69685731623E+00 -0.12633312486E+02  0.19262746836E+02  0.00000000000E+00 0.  1.
         22    1    4    4    0    0 -0.10655301319E+01  0.48569991597E+01 -0.90957093498E+02  0.91092912199E+02  0.00000000000E+00 0.  1.
         22    1    4    4    0    0 -0.13459180577E+02 -0.41601418435E+01 -0.48170582947E+03  0.48191177871E+03  0.00000000000E+00 0.  1.
<mgrwt>
<rscale>  0 0.90603723E+02</rscale>
<asrwt>0</asrwt>
<pdfrwt beam="2">  1        1 0.90581742E-01 0.90603723E+02</pdfrwt>
<pdfrwt beam="1">  1       -1 0.53624680E-03 0.90603723E+02</pdfrwt>
<totfact> 0.14379734E+05</totfact>
</mgrwt>
</event>
<event>
 6    1  0.5487286E-009  0.2063464E+03  0.7818608E-02  0.1144492E+00
          1   -1    0    0  501    0  0.00000000000E+00  0.00000000000E+00  0.53971277434E+03  0.53971277436E+03  0.50400000000E-02 0. -1.
         -1   -1    0    0    0  501 -0.00000000000E+00 -0.00000000000E+00 -0.19722907538E+02  0.19722908182E+02  0.50400000000E-02 0.  1.
    9000005    2    1    2    0    0  0.84923084981E+02 -0.57918358496E+02  0.24265721283E+03  0.26366572537E+03  0.84038787925E+01 0.  0.
         22    1    1    2    0    0 -0.84923084981E+02  0.57918358496E+02  0.27733265397E+03  0.29576995718E+03  0.00000000000E+00 0.  1.
         22    1    3    3    0    0  0.11952057594E+02 -0.68950996277E+01  0.39917615720E+02  0.42235176386E+02  0.00000000000E+00 0.  1.
         22    1    3    3    0    0  0.72971027387E+02 -0.51023258869E+02  0.20273959711E+03  0.22143054898E+03  0.00000000000E+00 0.  1.
<mgrwt>
<rscale>  0 0.20634636E+03</rscale>
<asrwt>0</asrwt>
<pdfrwt beam="1">  1        1 0.83032718E-01 0.20634636E+03</pdfrwt>
<pdfrwt beam="2">  1       -1 0.30342941E-02 0.20634636E+03</pdfrwt>
<totfact> 0.14758319E+04</totfact>
</mgrwt>
</event>
<event>
 7    1  0.3565607E-009  0.9270102E+02  0.7818608E-02  0.1296440E+00
         -1   -1    0    0    0  501 -0.00000000000E+00  0.00000000000E+00  0.87085635085E+01  0.87085649670E+01  0.50400000000E-02 0. -1.
          1   -1    0    0  501    0  0.00000000000E+00 -0.00000000000E+00 -0.24669622678E+03  0.24669622684E+03  0.50400000000E-02 0.  1.
         23    2    1    2    0    0  0.00000000000E+00  0.00000000000E+00 -0.23798766328E+03  0.25540479180E+03  0.92701023750E+02 0.  0.
    9000005    2    3    3    0    0 -0.11189064844E+02  0.31670677728E+02 -0.20545455458E+03  0.20864337436E+03  0.13865665045E+02 0.  0.
         22    1    3    3    0    0  0.11189064844E+02 -0.31670677728E+02 -0.32533108698E+02  0.46761417445E+02  0.00000000000E+00 0. -1.
         22    1    4    4    0    0 -0.48997103203E+01  0.28829191323E+02 -0.15704748238E+03  0.15974680327E+03  0.00000000000E+00 0. -1.
         22    1    4    4    0    0 -0.62893545236E+01  0.28414864056E+01 -0.48407072202E+02  0.48896571091E+02  0.00000000000E+00 0. -1.
<mgrwt>
<rscale>  0 0.92701024E+02</rscale>
<asrwt>0</asrwt>
<pdfrwt beam="2">  1        1 0.37953261E-01 0.92701024E+02</pdfrwt>
<pdfrwt beam="1">  1       -1 0.13397793E-02 0.92701024E+02</pdfrwt>
<totfact> 0.11799673E+05</totfact>
</mgrwt>
</event>
<event>
 7    1  0.3565607E-009  0.9296148E+02  0.7818608E-02  0.1295834E+00
         -1   -1    0    0    0  501 -0.00000000000E+00  0.00000000000E+00  0.56772132400E+02  0.56772132624E+02  0.50400000000E-02 0.  1.
          1   -1    0    0  501    0  0.00000000000E+00 -0.00000000000E+00 -0.38054922038E+02  0.38054922372E+02  0.50400000000E-02 0. -1.
         23    2    1    2    0    0 -0.71054273576E-14  0.00000000000E+00  0.18717210362E+02  0.94827054996E+02  0.92961478019E+02 0.  0.
    9000005    2    3    3    0    0 -0.38806342403E+02 -0.47909562969E+01  0.32969131640E+02  0.53209718067E+02  0.14677362938E+02 0.  0.
         22    1    3    3    0    0  0.38806342403E+02  0.47909562969E+01 -0.14251921277E+02  0.41617336928E+02  0.00000000000E+00 0. -1.
         22    1    4    4    0    0 -0.37193908310E+02 -0.76225509176E+01  0.32377743400E+02  0.49897979574E+02  0.00000000000E+00 0.  1.
         22    1    4    4    0    0 -0.16124340928E+01  0.28315946206E+01  0.59138823942E+00  0.33117384934E+01  0.00000000000E+00 0.  1.
<mgrwt>
<rscale>  0 0.92961478E+02</rscale>
<asrwt>0</asrwt>
<pdfrwt beam="2">  1        1 0.58546035E-02 0.92961478E+02</pdfrwt>
<pdfrwt beam="1">  1       -1 0.87341742E-02 0.92961478E+02</pdfrwt>
<totfact> 0.85158382E+04</totfact>
</mgrwt>
</event>
<event>
 7    1  0.3565607E-009  0.9111912E+02  0.7818608E-02  0.1300164E+00
         -1   -1    0    0    0  501 -0.00000000000E+00  0.00000000000E+00  0.25383696469E+03  0.25383696474E+03  0.50400000000E-02 0.  1.
          1   -1    0    0  501    0  0.00000000000E+00 -0.00000000000E+00 -0.81771906672E+01  0.81771922204E+01  0.50400000000E-02 0. -1.
         23    2    1    2    0    0  0.22204460493E-15  0.00000000000E+00  0.24565977402E+03  0.26201415696E+03  0.91119119150E+02 0.  0.
    9000005    2    3    3    0    0  0.16771165556E+01 -0.36599344695E+02  0.19984680974E+03  0.20335282005E+03  0.84437731783E+01 0.  0.
         22    1    3    3    0    0 -0.16771165556E+01  0.36599344695E+02  0.45812964279E+02  0.58661336910E+02  0.00000000000E+00 0. -1.
         22    1    4    4    0    0  0.10998854682E+00 -0.98756497076E+01  0.76478101715E+02  0.77113167466E+02  0.00000000000E+00 0.  1.
         22    1    4    4    0    0  0.15671280087E+01 -0.26723694988E+02  0.12336870803E+03  0.12623965259E+03  0.00000000000E+00 0.  1.
<mgrwt>
<rscale>  0 0.91119119E+02</rscale>
<asrwt>0</asrwt>
<pdfrwt beam="2">  1        1 0.12580292E-02 0.91119119E+02</pdfrwt>
<pdfrwt beam="1">  1       -1 0.39051849E-01 0.91119119E+02</pdfrwt>
<totfact> 0.64536312E+04</totfact>
</mgrwt>
</event>
<event>
 7    1  0.3565607E-009  0.8941556E+02  0.7818608E-02  0.1304273E+00
          1   -1    0    0  501    0  0.00000000000E+00  0.00000000000E+00  0.29477605190E+03  0.29477605194E+03  0.50400000000E-02 0. -1.
         -1   -1    0    0    0  501 -0.00000000000E+00 -0.00000000000E+00 -0.67806908202E+01  0.67806926933E+01  0.50400000000E-02 0.  1.
         23    2    1    2    0    0  0.00000000000E+00  0.00000000000E+00  0.28799536108E+03  0.30155674464E+03  0.89415559229E+02 0.  0.
    9000005    2    3    3    0    0 -0.11441839881E+02  0.32783970186E+02  0.23863457957E+03  0.24120617586E+03  0.53152895148E+01 0.  0.
         22    1    3    3    0    0  0.11441839881E+02 -0.32783970186E+02  0.49360781507E+02  0.60350568779E+02  0.00000000000E+00 0.  1.
         22    1    4    4    0    0 -0.11055454048E+02  0.31531454010E+02  0.23450700524E+03  0.23687547606E+03  0.00000000000E+00 0. -1.
         22    1    4    4    0    0 -0.38638583361E+00  0.12525161760E+01  0.41275743365E+01  0.43306997918E+01  0.00000000000E+00 0. -1.
<mgrwt>
<rscale>  0 0.89415559E+02</rscale>
<asrwt>0</asrwt>
<pdfrwt beam="1">  1        1 0.45350160E-01 0.89415559E+02</pdfrwt>
<pdfrwt beam="2">  1       -1 0.10431834E-02 0.89415559E+02</pdfrwt>
<totfact> 0.13449575E+05</totfact>
</mgrwt>
</event>
<event>
 6    1  0.3565607E-009  0.3553744E+03  0.7818608E-02  0.1060431E+00
         -1   -1    0    0    0  501 -0.00000000000E+00  0.00000000000E+00  0.57805335478E+02  0.57805335698E+02  0.50400000000E-02 0.  1.
          1   -1    0    0  501    0  0.00000000000E+00 -0.00000000000E+00 -0.54619079778E+03  0.54619079781E+03  0.50400000000E-02 0. -1.
    9000005    2    1    2    0    0 -0.13499561795E+03  0.10640493102E+03 -0.16974479052E+03  0.24194958412E+03  0.13434326666E+02 0.  0.
         22    1    1    2    0    0  0.13499561795E+03 -0.10640493102E+03 -0.31864067178E+03  0.36204654939E+03  0.00000000000E+00 0. -1.
         22    1    3    3    0    0 -0.35582383579E+02  0.34667010232E+02 -0.53440826287E+02  0.72964577254E+02  0.00000000000E+00 0.  1.
         22    1    3    3    0    0 -0.99413234371E+02  0.71737920786E+02 -0.11630396424E+03  0.16898500686E+03  0.00000000000E+00 0.  1.
<mgrwt>
<rscale>  0 0.35537441E+03</rscale>
<asrwt>0</asrwt>
<pdfrwt beam="2">  1        1 0.84029350E-01 0.35537441E+03</pdfrwt>
<pdfrwt beam="1">  1       -1 0.88931289E-02 0.35537441E+03</pdfrwt>
<totfact> 0.29388817E+03</totfact>
</mgrwt>
</event>
<event>
 7    1  0.5101212E-009  0.1075621E+03  0.7818608E-02  0.1265152E+00
         -1   -1    0    0    0  501 -0.00000000000E+00  0.00000000000E+00  0.74466198063E+02  0.74466198234E+02  0.50400000000E-02 0.  1.
          1   -1    0    0  501    0  0.00000000000E+00 -0.00000000000E+00 -0.38841788333E+02  0.38841788660E+02  0.50400000000E-02 0. -1.
         23    2    1    2    0    0  0.35527136788E-14  0.00000000000E+00  0.35624409730E+02  0.11330798689E+03  0.10756208126E+03 0.  0.
    9000005    2    3    3    0    0  0.27558269544E+02  0.33409223344E+02 -0.13857452513E+02  0.47550180393E+02  0.13905259457E+02 0.  0.
         22    1    3    3    0    0 -0.27558269544E+02 -0.33409223344E+02  0.49481862243E+02  0.65757806500E+02  0.00000000000E+00 0.  1.
         22    1    4    4    0    0 -0.68881043810E+00  0.51056386910E+01 -0.35473054952E+01  0.62550285802E+01  0.00000000000E+00 0.  1.
         22    1    4    4    0    0  0.28247079982E+02  0.28303584653E+02 -0.10310147018E+02  0.41295151813E+02  0.00000000000E+00 0.  1.
<mgrwt>
<rscale>  0 0.10756208E+03</rscale>
<asrwt>0</asrwt>
<pdfrwt beam="2">  1        1 0.59756598E-02 0.10756208E+03</pdfrwt>
<pdfrwt beam="1">  1       -1 0.11456338E-01 0.10756208E+03</pdfrwt>
<totfact> 0.56139277E+04</totfact>
</mgrwt>
</event>
<event>
 7    1  0.3565607E-009  0.9183406E+02  0.7818608E-02  0.1298470E+00
          1   -1    0    0  501    0  0.00000000000E+00  0.00000000000E+00  0.58563767523E+01  0.58563789210E+01  0.50400000000E-02 0. -1.
         -1   -1    0    0    0  501 -0.00000000000E+00 -0.00000000000E+00 -0.36001326097E+03  0.36001326101E+03  0.50400000000E-02 0.  1.
         23    2    1    2    0    0  0.00000000000E+00  0.00000000000E+00 -0.35415688422E+03  0.36586963993E+03  0.91834061116E+02 0.  0.
    9000005    2    3    3    0    0  0.33971973962E+02  0.19791172587E+02 -0.26918199406E+03  0.27223995721E+03  0.10481548141E+02 0.  0.
         22    1    3    3    0    0 -0.33971973962E+02 -0.19791172587E+02 -0.84974890160E+02  0.93629682713E+02  0.00000000000E+00 0. -1.
         22    1    4    4    0    0  0.12270525165E+01  0.34924262059E+01 -0.15575795362E+02  0.16009625224E+02  0.00000000000E+00 0.  1.
         22    1    4    4    0    0  0.32744921445E+02  0.16298746381E+02 -0.25360619870E+03  0.25623033199E+03  0.00000000000E+00 0.  1.
<mgrwt>
<rscale>  0 0.91834061E+02</rscale>
<asrwt>0</asrwt>
<pdfrwt beam="1">  1        1 0.90098149E-03 0.91834061E+02</pdfrwt>
<pdfrwt beam="2">  1       -1 0.55386638E-01 0.91834061E+02</pdfrwt>
<totfact> 0.55019784E+04</totfact>
</mgrwt>
</event>
<event>
 7    1  0.3565607E-009  0.9162099E+02  0.7818608E-02  0.1298973E+00
         -1   -1    0    0    0  501 -0.00000000000E+00  0.00000000000E+00  0.24314297246E+03  0.24314297251E+03  0.50400000000E-02 0.  1.
          1   -1    0    0  501    0  0.00000000000E+00 -0.00000000000E+00 -0.86311406309E+01  0.86311421024E+01  0.50400000000E-02 0. -1.
         23    2    1    2    0    0  0.00000000000E+00  0.00000000000E+00  0.23451183183E+03  0.25177411461E+03  0.91620988436E+02 0.  0.
    9000005    2    3    3    0    0 -0.33751915195E+02  0.33671460937E+01  0.20084947313E+03  0.20398620981E+03  0.10923986655E+02 0.  0.
         22    1    3    3    0    0  0.33751915195E+02 -0.33671460937E+01  0.33662358694E+02  0.47787904798E+02  0.00000000000E+00 0. -1.
         22    1    4    4    0    0 -0.12617359862E+02  0.14506391155E+01  0.47227215453E+02  0.48905132687E+02  0.00000000000E+00 0.  1.
         22    1    4    4    0    0 -0.21134555333E+02  0.19165069782E+01  0.15362225768E+03  0.15508107713E+03  0.00000000000E+00 0.  1.
<mgrwt>
<rscale>  0 0.91620988E+02</rscale>
<asrwt>0</asrwt>
<pdfrwt beam="2">  1        1 0.13278681E-02 0.91620988E+02</pdfrwt>
<pdfrwt beam="1">  1       -1 0.37406607E-01 0.91620988E+02</pdfrwt>
<totfact> 0.64546723E+04</totfact>
</mgrwt>
</event>
<event>
 7    1  0.3565607E-009  0.9237875E+02  0.7818608E-02  0.1297191E+00
         -1   -1    0    0    0  501 -0.00000000000E+00  0.00000000000E+00  0.56230746602E+01  0.56230769189E+01  0.50400000000E-02 0.  1.
          1   -1    0    0  501    0  0.00000000000E+00 -0.00000000000E+00 -0.37941127434E+03  0.37941127437E+03  0.50400000000E-02 0. -1.
         23    2    1    2    0    0  0.00000000000E+00  0.00000000000E+00 -0.37378819968E+03  0.38503435129E+03  0.92378750020E+02 0.  0.
    9000005    2    3    3    0    0  0.31887750393E+02  0.15574465201E+02 -0.30877753061E+03  0.31096830182E+03  0.99160847245E+01 0.  0.
         22    1    3    3    0    0 -0.31887750393E+02 -0.15574465201E+02 -0.65010669069E+02  0.74066049471E+02  0.00000000000E+00 0.  1.
         22    1    4    4    0    0  0.12577439666E+01  0.29293813132E+01 -0.45866874960E+02  0.45977531615E+02  0.00000000000E+00 0. -1.
         22    1    4    4    0    0  0.30630006427E+02  0.12645083887E+02 -0.26291065565E+03  0.26499077020E+03  0.00000000000E+00 0. -1.
<mgrwt>
<rscale>  0 0.92378750E+02</rscale>
<asrwt>0</asrwt>
<pdfrwt beam="2">  1        1 0.58370945E-01 0.92378750E+02</pdfrwt>
<pdfrwt beam="1">  1       -1 0.86508888E-03 0.92378750E+02</pdfrwt>
<totfact> 0.12912543E+05</totfact>
</mgrwt>
</event>
<event>
 7    1  0.3565607E-009  0.9031733E+02  0.7818608E-02  0.1302085E+00
         -1   -1    0    0    0  501 -0.00000000000E+00  0.00000000000E+00  0.29482075078E+03  0.29482075083E+03  0.50400000000E-02 0.  1.
          1   -1    0    0  501    0  0.00000000000E+00 -0.00000000000E+00 -0.69171007748E+01  0.69171026110E+01  0.50400000000E-02 0. -1.
         23    2    1    2    0    0  0.00000000000E+00  0.71054273576E-14  0.28790365001E+03  0.30173785344E+03  0.90317332273E+02 0.  0.
    9000005    2    3    3    0    0  0.16833389905E+02  0.39948200929E+02  0.11700115785E+03  0.12542312462E+03  0.12746273071E+02 0.  0.
         22    1    3    3    0    0 -0.16833389905E+02 -0.39948200929E+02  0.17090249216E+03  0.17631472882E+03  0.00000000000E+00 0.  1.
         22    1    4    4    0    0  0.64190601073E+01  0.28271951126E+02  0.84869738969E+02  0.89684893632E+02  0.00000000000E+00 0.  1.
         22    1    4    4    0    0  0.10414329798E+02  0.11676249803E+02  0.32131418884E+02  0.35738230987E+02  0.00000000000E+00 0.  1.
<mgrwt>
<rscale>  0 0.90317332E+02</rscale>
<asrwt>0</asrwt>
<pdfrwt beam="2">  1        1 0.10641695E-02 0.90317332E+02</pdfrwt>
<pdfrwt beam="1">  1       -1 0.45357039E-01 0.90317332E+02</pdfrwt>
<totfact> 0.62528636E+04</totfact>
</mgrwt>
</event>
<event>
 7    1  0.3565607E-009  0.8961705E+02  0.7818608E-02  0.1303782E+00
         -1   -1    0    0    0  501 -0.00000000000E+00  0.00000000000E+00  0.58305925514E+01  0.58305947297E+01  0.50400000000E-02 0.  1.
          1   -1    0    0  501    0  0.00000000000E+00 -0.00000000000E+00 -0.34435671681E+03  0.34435671684E+03  0.50400000000E-02 0. -1.
         23    2    1    2    0    0  0.00000000000E+00  0.00000000000E+00 -0.33852612425E+03  0.35018731157E+03  0.89617054089E+02 0.  0.
    9000005    2    3    3    0    0  0.36359380602E+02  0.81809106216E+01 -0.26586699762E+03  0.26852777117E+03  0.57420907761E+01 0.  0.
         22    1    3    3    0    0 -0.36359380602E+02 -0.81809106216E+01 -0.72659126630E+02  0.81659540404E+02  0.00000000000E+00 0.  1.
         22    1    4    4    0    0  0.14199710076E+02  0.41115413585E+00 -0.10450017788E+03  0.10546131040E+03  0.00000000000E+00 0. -1.
         22    1    4    4    0    0  0.22159670526E+02  0.77697564857E+01 -0.16136681974E+03  0.16306646077E+03  0.00000000000E+00 0. -1.
<mgrwt>
<rscale>  0 0.89617054E+02</rscale>
<asrwt>0</asrwt>
<pdfrwt beam="2">  1        1 0.52977941E-01 0.89617054E+02</pdfrwt>
<pdfrwt beam="1">  1       -1 0.89701468E-03 0.89617054E+02</pdfrwt>
<totfact> 0.13761340E+05</totfact>
</mgrwt>
</event>
<event>
 7    1  0.3565607E-009  0.1006491E+03  0.7818608E-02  0.1278937E+00
         -1   -1    0    0    0  501 -0.00000000000E+00  0.00000000000E+00  0.13185682400E+02  0.13185683364E+02  0.50400000000E-02 0.  1.
          1   -1    0    0  501    0  0.00000000000E+00 -0.00000000000E+00 -0.19206910980E+03  0.19206910987E+03  0.50400000000E-02 0. -1.
         23    2    1    2    0    0  0.00000000000E+00  0.00000000000E+00 -0.17888342740E+03  0.20525479323E+03  0.10064914081E+03 0.  0.
    9000005    2    3    3    0    0  0.28775583739E+02  0.40742300074E+02 -0.87834563373E+02  0.10143829707E+03  0.93192464399E+01 0.  0.
         22    1    3    3    0    0 -0.28775583739E+02 -0.40742300074E+02 -0.91048864026E+02  0.10381649616E+03  0.00000000000E+00 0.  1.
         22    1    4    4    0    0  0.65883998460E+01  0.17071105272E+02 -0.31904459694E+02  0.36779399072E+02  0.00000000000E+00 0. -1.
         22    1    4    4    0    0  0.22187183893E+02  0.23671194803E+02 -0.55930103680E+02  0.64658897997E+02  0.00000000000E+00 0. -1.
<mgrwt>
<rscale>  0 0.10064914E+03</rscale>
<asrwt>0</asrwt>
<pdfrwt beam="2">  1        1 0.29549092E-01 0.10064914E+03</pdfrwt>
<pdfrwt beam="1">  1       -1 0.20285667E-02 0.10064914E+03</pdfrwt>
<totfact> 0.89963671E+04</totfact>
</mgrwt>
</event>
<event>
 7    1  0.3565607E-009  0.9155923E+02  0.7818608E-02  0.1299119E+00
          1   -1    0    0  501    0  0.00000000000E+00  0.00000000000E+00  0.70386933823E+02  0.70386934003E+02  0.50400000000E-02 0. -1.
         -1   -1    0    0    0  501 -0.00000000000E+00 -0.00000000000E+00 -0.29775028642E+02  0.29775029069E+02  0.50400000000E-02 0.  1.
         23    2    1    2    0    0  0.00000000000E+00  0.00000000000E+00  0.40611905180E+02  0.10016196307E+03  0.91559226755E+02 0.  0.
    9000005    2    3    3    0    0  0.86041967227E+01 -0.35729011418E+02  0.48862861585E+02  0.62496690741E+02  0.12948461422E+02 0.  0.
         22    1    3    3    0    0 -0.86041967227E+01  0.35729011418E+02 -0.82509564044E+01  0.37665272331E+02  0.00000000000E+00 0.  1.
         22    1    4    4    0    0  0.48771236865E+01 -0.20956887389E+02  0.17901626076E+02  0.27990099691E+02  0.00000000000E+00 0. -1.
         22    1    4    4    0    0  0.37270730362E+01 -0.14772124029E+02  0.30961235508E+02  0.34506591051E+02  0.00000000000E+00 0. -1.
<mgrwt>
<rscale>  0 0.91559227E+02</rscale>
<asrwt>0</asrwt>
<pdfrwt beam="1">  1        1 0.10828759E-01 0.91559227E+02</pdfrwt>
<pdfrwt beam="2">  1       -1 0.45807737E-02 0.91559227E+02</pdfrwt>
<totfact> 0.97616506E+04</totfact>
</mgrwt>
</event>
<event>
 7    1  0.3565607E-009  0.9004204E+02  0.7818608E-02  0.1302750E+00
          1   -1    0    0  501    0  0.00000000000E+00  0.00000000000E+00  0.40299854932E+03  0.40299854936E+03  0.50400000000E-02 0. -1.
         -1   -1    0    0    0  501 -0.00000000000E+00 -0.00000000000E+00 -0.50295255526E+01  0.50295280779E+01  0.50400000000E-02 0.  1.
         23    2    1    2    0    0 -0.35527136788E-14  0.00000000000E+00  0.39796902377E+03  0.40802807743E+03  0.90042035142E+02 0.  0.
    9000005    2    3    3    0    0  0.24986796523E+02 -0.28428792019E+02  0.30792414433E+03  0.31035199782E+03  0.82793520110E+01 0.  0.
         22    1    3    3    0    0 -0.24986796523E+02  0.28428792019E+02  0.90044879441E+02  0.97676079619E+02  0.00000000000E+00 0. -1.
         22    1    4    4    0    0  0.39597308054E+01 -0.58517394531E+01  0.86610444653E+02  0.86898167102E+02  0.00000000000E+00 0. -1.
         22    1    4    4    0    0  0.21027065718E+02 -0.22577052566E+02  0.22131369968E+03  0.22345383071E+03  0.00000000000E+00 0. -1.
<mgrwt>
<rscale>  0 0.90042035E+02</rscale>
<asrwt>0</asrwt>
<pdfrwt beam="1">  1        1 0.61999793E-01 0.90042035E+02</pdfrwt>
<pdfrwt beam="2">  1       -1 0.77377315E-03 0.90042035E+02</pdfrwt>
<totfact> 0.13961797E+05</totfact>
</mgrwt>
</event>
<event>
 7    1  0.3565607E-009  0.9310683E+02  0.7818608E-02  0.1295498E+00
         -1   -1    0    0    0  501 -0.00000000000E+00  0.00000000000E+00  0.13584527908E+02  0.13584528843E+02  0.50400000000E-02 0.  1.
          1   -1    0    0  501    0  0.00000000000E+00 -0.00000000000E+00 -0.15953592484E+03  0.15953592492E+03  0.50400000000E-02 0. -1.
         23    2    1    2    0    0  0.35527136788E-14  0.00000000000E+00 -0.14595139693E+03  0.17312045376E+03  0.93106827055E+02 0.  0.
    9000005    2    3    3    0    0 -0.30750332103E+02 -0.32504831228E+02 -0.58669250126E+02  0.75037223142E+02  0.13651262545E+02 0.  0.
         22    1    3    3    0    0  0.30750332103E+02  0.32504831228E+02 -0.87282146806E+02  0.98083230619E+02  0.00000000000E+00 0. -1.
         22    1    4    4    0    0 -0.30764847455E+02 -0.29549870055E+02 -0.49200285124E+02  0.65117883223E+02  0.00000000000E+00 0. -1.
         22    1    4    4    0    0  0.14515352613E-01 -0.29549611729E+01 -0.94689650018E+01  0.99193399193E+01  0.00000000000E+00 0. -1.
<mgrwt>
<rscale>  0 0.93106827E+02</rscale>
<asrwt>0</asrwt>
<pdfrwt beam="2">  1        1 0.24543987E-01 0.93106827E+02</pdfrwt>
<pdfrwt beam="1">  1       -1 0.20899276E-02 0.93106827E+02</pdfrwt>
<totfact> 0.10718326E+05</totfact>
</mgrwt>
</event>
<event>
 7    1  0.3565607E-009  0.9497075E+02  0.7818608E-02  0.1291242E+00
         -1   -1    0    0    0  501 -0.00000000000E+00  0.00000000000E+00  0.64963401939E+01  0.64963421489E+01  0.50400000000E-02 0.  1.
          1   -1    0    0  501    0  0.00000000000E+00 -0.00000000000E+00 -0.34709703626E+03  0.34709703630E+03  0.50400000000E-02 0. -1.
         23    2    1    2    0    0  0.00000000000E+00  0.00000000000E+00 -0.34060069607E+03  0.35359337845E+03  0.94970748759E+02 0.  0.
    9000005    2    3    3    0    0  0.20061482196E+01 -0.14933948118E+02 -0.33752662927E+03  0.33821490896E+03  0.15428925389E+02 0.  0.
         22    1    3    3    0    0 -0.20061482196E+01  0.14933948118E+02 -0.30740667953E+01  0.15378469486E+02  0.00000000000E+00 0.  1.
         22    1    4    4    0    0  0.64624110011E+00 -0.12662059832E+02 -0.11922652116E+03  0.11989874367E+03  0.00000000000E+00 0.  1.
         22    1    4    4    0    0  0.13599071195E+01 -0.22718882861E+01 -0.21830010812E+03  0.21831616529E+03  0.00000000000E+00 0.  1.
<mgrwt>
<rscale>  0 0.94970749E+02</rscale>
<asrwt>0</asrwt>
<pdfrwt beam="2">  1        1 0.53399530E-01 0.94970749E+02</pdfrwt>
<pdfrwt beam="1">  1       -1 0.99943738E-03 0.94970749E+02</pdfrwt>
<totfact> 0.11807713E+05</totfact>
</mgrwt>
</event>
<event>
 7    1  0.3565607E-009  0.9089618E+02  0.7818608E-02  0.1300696E+00
         -1   -1    0    0    0  501 -0.00000000000E+00  0.00000000000E+00  0.98448296456E+01  0.98448309357E+01  0.50400000000E-02 0.  1.
          1   -1    0    0  501    0  0.00000000000E+00 -0.00000000000E+00 -0.20980849170E+03  0.20980849176E+03  0.50400000000E-02 0. -1.
         23    2    1    2    0    0  0.00000000000E+00  0.00000000000E+00 -0.19996366206E+03  0.21965332270E+03  0.90896182700E+02 0.  0.
    9000005    2    3    3    0    0 -0.18336374285E+02  0.26946439140E+02 -0.17630407834E+03  0.17937790705E+03  0.55652756207E+01 0.  0.
         22    1    3    3    0    0  0.18336374285E+02 -0.26946439140E+02 -0.23659583714E+02  0.40275415649E+02  0.00000000000E+00 0.  1.
         22    1    4    4    0    0 -0.89582660078E+01  0.13269108998E+02 -0.71554278654E+02  0.73323492669E+02  0.00000000000E+00 0.  1.
         22    1    4    4    0    0 -0.93781082767E+01  0.13677330142E+02 -0.10474979969E+03  0.10605441438E+03  0.00000000000E+00 0.  1.
<mgrwt>
<rscale>  0 0.90896183E+02</rscale>
<asrwt>0</asrwt>
<pdfrwt beam="2">  1        1 0.32278226E-01 0.90896183E+02</pdfrwt>
<pdfrwt beam="1">  1       -1 0.15145894E-02 0.90896183E+02</pdfrwt>
<totfact> 0.12050415E+05</totfact>
</mgrwt>
</event>
<event>
 7    1  0.3565607E-009  0.9230953E+02  0.7818608E-02  0.1297353E+00
         -1   -1    0    0    0  501 -0.00000000000E+00  0.00000000000E+00  0.16593894055E+01  0.16593970594E+01  0.50400000000E-02 0.  1.
          1   -1    0    0  501    0  0.00000000000E+00 -0.00000000000E+00 -0.12837597365E+04  0.12837597365E+04  0.50400000000E-02 0. -1.
         23    2    1    2    0    0 -0.11102230246E-15  0.00000000000E+00 -0.12821003471E+04  0.12854191336E+04  0.92309527819E+02 0.  0.
    9000005    2    3    3    0    0 -0.84089172407E+00  0.10381348503E+02 -0.12671068964E+04  0.12671630919E+04  0.58253716006E+01 0.  0.
         22    1    3    3    0    0  0.84089172407E+00 -0.10381348503E+02 -0.14993450726E+02  0.18256041748E+02  0.00000000000E+00 0.  1.
         22    1    4    4    0    0  0.53340603443E+00  0.99371643337E+01 -0.93292533836E+03  0.93297841278E+03  0.00000000000E+00 0. -1.
         22    1    4    4    0    0 -0.13742977585E+01  0.44418416885E+00 -0.33418155804E+03  0.33418467908E+03  0.00000000000E+00 0. -1.
<mgrwt>
<rscale>  0 0.92309528E+02</rscale>
<asrwt>0</asrwt>
<pdfrwt beam="2">  1        1 0.19750070E+00 0.92309528E+02</pdfrwt>
<pdfrwt beam="1">  1       -1 0.25529229E-03 0.92309528E+02</pdfrwt>
<totfact> 0.11899721E+05</totfact>
</mgrwt>
</event>
<event>
 7    1  0.3565607E-009  0.9390023E+02  0.7818608E-02  0.1293672E+00
          1   -1    0    0  501    0  0.00000000000E+00  0.00000000000E+00  0.34866319610E+03  0.34866319614E+03  0.50400000000E-02 0. -1.
         -1   -1    0    0    0  501 -0.00000000000E+00 -0.00000000000E+00 -0.63221835441E+01  0.63221855530E+01  0.50400000000E-02 0.  1.
         23    2    1    2    0    0  0.00000000000E+00 -0.35527136788E-14  0.34234101256E+03  0.35498538169E+03  0.93900225428E+02 0.  0.
    9000005    2    3    3    0    0 -0.32050064882E+02  0.25477094831E+02  0.25232103681E+03  0.25609208033E+03  0.15522853231E+02 0.  0.
         22    1    3    3    0    0  0.32050064882E+02 -0.25477094831E+02  0.90019975749E+02  0.98893301360E+02  0.00000000000E+00 0.  1.
         22    1    4    4    0    0 -0.10065506516E+02  0.69094775170E+01  0.39765474174E+02  0.41597454697E+02  0.00000000000E+00 0.  1.
         22    1    4    4    0    0 -0.21984558366E+02  0.18567617314E+02  0.21255556264E+03  0.21449462564E+03  0.00000000000E+00 0.  1.
<mgrwt>
<rscale>  0 0.93900225E+02</rscale>
<asrwt>0</asrwt>
<pdfrwt beam="1">  1        1 0.53640489E-01 0.93900225E+02</pdfrwt>
<pdfrwt beam="2">  1       -1 0.97264384E-03 0.93900225E+02</pdfrwt>
<totfact> 0.12180490E+05</totfact>
</mgrwt>
</event>
<event>
 7    1  0.3565607E-009  0.9586813E+02  0.7818608E-02  0.1289233E+00
          1   -1    0    0  501    0  0.00000000000E+00  0.00000000000E+00  0.52313511422E+03  0.52313511424E+03  0.50400000000E-02 0. -1.
         -1   -1    0    0    0  501 -0.00000000000E+00 -0.00000000000E+00 -0.43921230199E+01  0.43921259116E+01  0.50400000000E-02 0.  1.
         23    2    1    2    0    0  0.00000000000E+00  0.00000000000E+00  0.51874299120E+03  0.52752724015E+03  0.95868129152E+02 0.  0.
    9000005    2    3    3    0    0 -0.44998433675E+02  0.97341879963E+01  0.32680597906E+03  0.33014580719E+03  0.86309100787E+01 0.  0.
         22    1    3    3    0    0  0.44998433675E+02 -0.97341879963E+01  0.19193701214E+03  0.19738143296E+03  0.00000000000E+00 0. -1.
         22    1    4    4    0    0 -0.37314786730E+02  0.11276632894E+02  0.26814331141E+03  0.27096197374E+03  0.00000000000E+00 0.  1.
         22    1    4    4    0    0 -0.76836469447E+01 -0.15424448975E+01  0.58662667644E+02  0.59183833449E+02  0.00000000000E+00 0.  1.
<mgrwt>
<rscale>  0 0.95868129E+02</rscale>
<asrwt>0</asrwt>
<pdfrwt beam="1">  1        1 0.80482314E-01 0.95868129E+02</pdfrwt>
<pdfrwt beam="2">  1       -1 0.67571155E-03 0.95868129E+02</pdfrwt>
<totfact> 0.12250646E+05</totfact>
</mgrwt>
</event>
<event>
 6    1  0.3565607E-009  0.1358668E+03  0.7818608E-02  0.1219001E+00
          1   -1    0    0  501    0  0.00000000000E+00  0.00000000000E+00  0.10695103857E+04  0.10695103857E+04  0.50400000000E-02 0. -1.
         -1   -1    0    0    0  501 -0.00000000000E+00 -0.00000000000E+00 -0.43150071777E+01  0.43150101211E+01  0.50400000000E-02 0.  1.
    9000005    2    1    2    0    0  0.42072290172E+02  0.42637005303E+02  0.77825625979E+03  0.78070076418E+03  0.14929349341E+02 0.  0.
         22    1    1    2    0    0 -0.42072290172E+02 -0.42637005303E+02  0.28693911876E+03  0.29312463168E+03  0.00000000000E+00 0.  1.
         22    1    3    3    0    0  0.33247624636E+02  0.29390853778E+02  0.48996091213E+03  0.49196638325E+03  0.00000000000E+00 0.  1.
         22    1    3    3    0    0  0.88246655361E+01  0.13246151525E+02  0.28829534766E+03  0.28873438094E+03  0.00000000000E+00 0.  1.
<mgrwt>
<rscale>  0 0.13586680E+03</rscale>
<asrwt>0</asrwt>
<pdfrwt beam="1">  1        1 0.16454012E+00 0.13586680E+03</pdfrwt>
<pdfrwt beam="2">  1       -1 0.66384722E-03 0.13586680E+03</pdfrwt>
<totfact> 0.45533667E+04</totfact>
</mgrwt>
</event>
<event>
 7    1  0.3565607E-009  0.9614383E+02  0.7818608E-02  0.1288620E+00
          1   -1    0    0  501    0  0.00000000000E+00  0.00000000000E+00  0.18296771073E+02  0.18296771767E+02  0.50400000000E-02 0. -1.
         -1   -1    0    0    0  501 -0.00000000000E+00 -0.00000000000E+00 -0.12630147392E+03  0.12630147402E+03  0.50400000000E-02 0.  1.
         23    2    1    2    0    0  0.00000000000E+00  0.88817841970E-15 -0.10800470284E+03  0.14459824578E+03  0.96143834164E+02 0.  0.
    9000005    2    3    3    0    0 -0.25791035696E+02 -0.58075922627E+01  0.51489015233E+01  0.28397368717E+02  0.89996507157E+01 0.  0.
         22    1    3    3    0    0  0.25791035696E+02  0.58075922627E+01 -0.11315360437E+03  0.11620087707E+03  0.00000000000E+00 0.  1.
         22    1    4    4    0    0 -0.69208731905E+01 -0.25612615481E+01  0.55694315487E+01  0.92453834000E+01  0.00000000000E+00 0. -1.
         22    1    4    4    0    0 -0.18870162505E+02 -0.32463307145E+01 -0.42053002536E+00  0.19151985317E+02  0.00000000000E+00 0. -1.
<mgrwt>
<rscale>  0 0.96143834E+02</rscale>
<asrwt>0</asrwt>
<pdfrwt beam="1">  1        1 0.28148880E-02 0.96143834E+02</pdfrwt>
<pdfrwt beam="2">  1       -1 0.19430995E-01 0.96143834E+02</pdfrwt>
<totfact> 0.67716836E+04</totfact>
</mgrwt>
</event>
<event>
 7    1  0.3565607E-009  0.9151401E+02  0.7818608E-02  0.1299226E+00
         -1   -1    0    0    0  501 -0.00000000000E+00  0.00000000000E+00  0.17881462933E+03  0.17881462940E+03  0.50400000000E-02 0.  1.
          1   -1    0    0  501    0  0.00000000000E+00 -0.00000000000E+00 -0.11708791572E+02  0.11708792657E+02  0.50400000000E-02 0. -1.
         23    2    1    2    0    0  0.71054273576E-14  0.00000000000E+00  0.16710583776E+03  0.19052342206E+03  0.91514006250E+02 0.  0.
    9000005    2    3    3    0    0 -0.37880307078E+02 -0.23434647180E+02  0.76006822070E+02  0.89117648001E+02  0.13446852092E+02 0.  0.
         22    1    3    3    0    0  0.37880307078E+02  0.23434647180E+02  0.91099015691E+02  0.10140577406E+03  0.00000000000E+00 0.  1.
         22    1    4    4    0    0 -0.24550189022E+02 -0.22255850763E+02  0.53301139913E+02  0.62761821119E+02  0.00000000000E+00 0.  1.
         22    1    4    4    0    0 -0.13330118056E+02 -0.11787964176E+01  0.22705682157E+02  0.26355826882E+02  0.00000000000E+00 0.  1.
<mgrwt>
<rscale>  0 0.91514006E+02</rscale>
<asrwt>0</asrwt>
<pdfrwt beam="2">  1        1 0.18013527E-02 0.91514006E+02</pdfrwt>
<pdfrwt beam="1">  1       -1 0.27509943E-01 0.91514006E+02</pdfrwt>
<totfact> 0.70909505E+04</totfact>
</mgrwt>
</event>
<event>
 7    1  0.3565607E-009  0.9297542E+02  0.7818608E-02  0.1295802E+00
         -1   -1    0    0    0  501 -0.00000000000E+00  0.00000000000E+00  0.38551695083E+01  0.38551728028E+01  0.50400000000E-02 0.  1.
          1   -1    0    0  501    0  0.00000000000E+00 -0.00000000000E+00 -0.56057365239E+03  0.56057365241E+03  0.50400000000E-02 0. -1.
         23    2    1    2    0    0  0.00000000000E+00  0.00000000000E+00 -0.55671848288E+03  0.56442882521E+03  0.92975424452E+02 0.  0.
    9000005    2    3    3    0    0 -0.27445856006E+02 -0.35889101623E+02 -0.33580233980E+03  0.33893992327E+03  0.87038809040E+01 0.  0.
         22    1    3    3    0    0  0.27445856006E+02  0.35889101623E+02 -0.22091614308E+03  0.22548890194E+03  0.00000000000E+00 0. -1.
         22    1    4    4    0    0 -0.10029766049E+02 -0.72834626165E+01 -0.10226419035E+03  0.10301266748E+03  0.00000000000E+00 0. -1.
         22    1    4    4    0    0 -0.17416089956E+02 -0.28605639007E+02 -0.23353814946E+03  0.23592725579E+03  0.00000000000E+00 0. -1.
<mgrwt>
<rscale>  0 0.92975424E+02</rscale>
<asrwt>0</asrwt>
<pdfrwt beam="2">  1        1 0.86242036E-01 0.92975424E+02</pdfrwt>
<pdfrwt beam="1">  1       -1 0.59310370E-03 0.92975424E+02</pdfrwt>
<totfact> 0.13378348E+05</totfact>
</mgrwt>
</event>
<event>
 7    1  0.3565607E-009  0.9063018E+02  0.7818608E-02  0.1301333E+00
         -1   -1    0    0    0  501 -0.00000000000E+00  0.00000000000E+00  0.27883172307E+02  0.27883172762E+02  0.50400000000E-02 0. -1.
          1   -1    0    0  501    0  0.00000000000E+00 -0.00000000000E+00 -0.73645041261E+02  0.73645041433E+02  0.50400000000E-02 0.  1.
         23    2    1    2    0    0  0.00000000000E+00  0.00000000000E+00 -0.45761868954E+02  0.10152821420E+03  0.90630180556E+02 0.  0.
    9000005    2    3    3    0    0 -0.43070380497E+02  0.45594106581E+01 -0.14957525423E+02  0.48379804228E+02  0.15525204946E+02 0.  0.
         22    1    3    3    0    0  0.43070380497E+02 -0.45594106581E+01 -0.30804343531E+02  0.53148409968E+02  0.00000000000E+00 0.  1.
         22    1    4    4    0    0 -0.11604743420E+02  0.23387654379E+01 -0.11739794530E+02  0.16672212488E+02  0.00000000000E+00 0. -1.
         22    1    4    4    0    0 -0.31465637077E+02  0.22206452201E+01 -0.32177308925E+01  0.31707591740E+02  0.00000000000E+00 0. -1.
<mgrwt>
<rscale>  0 0.90630181E+02</rscale>
<asrwt>0</asrwt>
<pdfrwt beam="2">  1        1 0.11330006E-01 0.90630181E+02</pdfrwt>
<pdfrwt beam="1">  1       -1 0.42897189E-02 0.90630181E+02</pdfrwt>
<totfact> 0.10110480E+05</totfact>
</mgrwt>
</event>
<event>
 7    1  0.3565607E-009  0.9167936E+02  0.7818608E-02  0.1298835E+00
          1   -1    0    0  501    0  0.00000000000E+00  0.00000000000E+00  0.16247182929E+03  0.16247182937E+03  0.50400000000E-02 0. -1.
         -1   -1    0    0    0  501 -0.00000000000E+00 -0.00000000000E+00 -0.12933171774E+02  0.12933172756E+02  0.50400000000E-02 0.  1.
         23    2    1    2    0    0  0.00000000000E+00 -0.17763568394E-14  0.14953865752E+03  0.17540500212E+03  0.91679357973E+02 0.  0.
    9000005    2    3    3    0    0 -0.21742488628E+02  0.12083828464E+02  0.14837432380E+03  0.15050298624E+03  0.41778203655E+01 0.  0.
         22    1    3    3    0    0  0.21742488628E+02 -0.12083828464E+02  0.11643337193E+01  0.24902015884E+02  0.00000000000E+00 0. -1.
         22    1    4    4    0    0 -0.30673333784E+01  0.29838697949E+01  0.19406104699E+02  0.19872315230E+02  0.00000000000E+00 0. -1.
         22    1    4    4    0    0 -0.18675155249E+02  0.90999586687E+01  0.12896821910E+03  0.13063067101E+03  0.00000000000E+00 0. -1.
<mgrwt>
<rscale>  0 0.91679358E+02</rscale>
<asrwt>0</asrwt>
<pdfrwt beam="1">  1        1 0.24995664E-01 0.91679358E+02</pdfrwt>
<pdfrwt beam="2">  1       -1 0.19897190E-02 0.91679358E+02</pdfrwt>
<totfact> 0.11213102E+05</totfact>
</mgrwt>
</event>
<event>
 7    1  0.3565607E-009  0.8278658E+02  0.7818608E-02  0.1321324E+00
         -1   -1    0    0    0  501 -0.00000000000E+00  0.00000000000E+00  0.20190549033E+03  0.20190549039E+03  0.50400000000E-02 0.  1.
          1   -1    0    0  501    0  0.00000000000E+00 -0.00000000000E+00 -0.84861705257E+01  0.84861720224E+01  0.50400000000E-02 0. -1.
         23    2    1    2    0    0 -0.22204460493E-15  0.00000000000E+00  0.19341931980E+03  0.21039166241E+03  0.82786583093E+02 0.  0.
    9000005    2    3    3    0    0 -0.67459506452E+00  0.31852177332E+02  0.33668433830E+02  0.47494879608E+02  0.10352964464E+02 0.  0.
         22    1    3    3    0    0  0.67459506452E+00 -0.31852177332E+02  0.15975088597E+03  0.16289678280E+03  0.00000000000E+00 0.  1.
         22    1    4    4    0    0  0.41282430538E+01  0.65295825026E+01  0.78063201301E+01  0.10982553089E+02  0.00000000000E+00 0.  1.
         22    1    4    4    0    0 -0.48028381183E+01  0.25322594829E+02  0.25862113700E+02  0.36512326520E+02  0.00000000000E+00 0.  1.
<mgrwt>
<rscale>  0 0.82786583E+02</rscale>
<asrwt>0</asrwt>
<pdfrwt beam="2">  1        1 0.13055649E-02 0.82786583E+02</pdfrwt>
<pdfrwt beam="1">  1       -1 0.31062382E-01 0.82786583E+02</pdfrwt>
<totfact> 0.88959210E+04</totfact>
</mgrwt>
</event>
<event>
 7    1  0.3565607E-009  0.9622891E+02  0.7818608E-02  0.1288432E+00
          1   -1    0    0  501    0  0.00000000000E+00  0.00000000000E+00  0.59294512304E+02  0.59294512518E+02  0.50400000000E-02 0. -1.
         -1   -1    0    0    0  501 -0.00000000000E+00 -0.00000000000E+00 -0.39042413895E+02  0.39042414221E+02  0.50400000000E-02 0.  1.
         23    2    1    2    0    0  0.00000000000E+00  0.00000000000E+00  0.20252098409E+02  0.98336926739E+02  0.96228912861E+02 0.  0.
    9000005    2    3    3    0    0  0.20760709904E+02 -0.12523966320E+02  0.51351752430E+02  0.58902864199E+02  0.15642510193E+02 0.  0.
         22    1    3    3    0    0 -0.20760709904E+02  0.12523966320E+02 -0.31099654022E+02  0.39434062539E+02  0.00000000000E+00 0.  1.
         22    1    4    4    0    0 -0.76589647303E+00 -0.45418531454E+01  0.33572658265E+01  0.56996720284E+01  0.00000000000E+00 0. -1.
         22    1    4    4    0    0  0.21526606377E+02 -0.79821131743E+01  0.47994486604E+02  0.53203192171E+02  0.00000000000E+00 0. -1.
<mgrwt>
<rscale>  0 0.96228913E+02</rscale>
<asrwt>0</asrwt>
<pdfrwt beam="1">  1        1 0.91222327E-02 0.96228913E+02</pdfrwt>
<pdfrwt beam="2">  1       -1 0.60065253E-02 0.96228913E+02</pdfrwt>
<totfact> 0.82766617E+04</totfact>
</mgrwt>
</event>
<event>
 7    1  0.3565607E-009  0.9198289E+02  0.7818608E-02  0.1298120E+00
          1   -1    0    0  501    0  0.00000000000E+00  0.00000000000E+00  0.12586630637E+04  0.12586630637E+04  0.50400000000E-02 0. -1.
         -1   -1    0    0    0  501 -0.00000000000E+00 -0.00000000000E+00 -0.16805198084E+01  0.16805273661E+01  0.50400000000E-02 0.  1.
         23    2    1    2    0    0  0.00000000000E+00  0.17763568394E-14  0.12569825439E+04  0.12603435911E+04  0.91982889270E+02 0.  0.
    9000005    2    3    3    0    0  0.28620737619E+02  0.14543884294E+02  0.10731734903E+04  0.10737519531E+04  0.14534278198E+02 0.  0.
         22    1    3    3    0    0 -0.28620737619E+02 -0.14543884294E+02  0.18380905358E+03  0.18659163800E+03  0.00000000000E+00 0.  1.
         22    1    4    4    0    0  0.11105369355E+02 -0.17334970137E+01  0.37989790356E+03  0.38006414112E+03  0.00000000000E+00 0. -1.
         22    1    4    4    0    0  0.17515368264E+02  0.16277381308E+02  0.69327558675E+03  0.69368781195E+03  0.00000000000E+00 0. -1.
<mgrwt>
<rscale>  0 0.91982889E+02</rscale>
<asrwt>0</asrwt>
<pdfrwt beam="1">  1        1 0.19363979E+00 0.91982889E+02</pdfrwt>
<pdfrwt beam="2">  1       -1 0.25854300E-03 0.91982889E+02</pdfrwt>
<totfact> 0.12142714E+05</totfact>
</mgrwt>
</event>
<event>
 7    1  0.3565607E-009  0.9155222E+02  0.7818608E-02  0.1299136E+00
         -1   -1    0    0    0  501 -0.00000000000E+00  0.00000000000E+00  0.25135617851E+02  0.25135618356E+02  0.50400000000E-02 0.  1.
          1   -1    0    0  501    0  0.00000000000E+00 -0.00000000000E+00 -0.83365845529E+02  0.83365845681E+02  0.50400000000E-02 0. -1.
         23    2    1    2    0    0 -0.71054273576E-14  0.00000000000E+00 -0.58230227678E+02  0.10850146404E+03  0.91552216154E+02 0.  0.
    9000005    2    3    3    0    0 -0.36837998327E+02  0.15951876867E+02 -0.33423621326E+01  0.40500153164E+02  0.41941060322E+01 0.  0.
         22    1    3    3    0    0  0.36837998327E+02 -0.15951876867E+02 -0.54887865545E+02  0.68001310873E+02  0.00000000000E+00 0. -1.
         22    1    4    4    0    0 -0.53490362865E+01  0.29938845890E+01 -0.19043889132E+01  0.64188964207E+01  0.00000000000E+00 0.  1.
         22    1    4    4    0    0 -0.31488962040E+02  0.12957992277E+02 -0.14379732194E+01  0.34081256744E+02  0.00000000000E+00 0.  1.
<mgrwt>
<rscale>  0 0.91552216E+02</rscale>
<asrwt>0</asrwt>
<pdfrwt beam="2">  1        1 0.12825515E-01 0.91552216E+02</pdfrwt>
<pdfrwt beam="1">  1       -1 0.38670182E-02 0.91552216E+02</pdfrwt>
<totfact> 0.10026740E+05</totfact>
</mgrwt>
</event>
<event>
 7    1  0.3565607E-009  0.9257906E+02  0.7818608E-02  0.1296724E+00
         -1   -1    0    0    0  501 -0.00000000000E+00  0.00000000000E+00  0.26669032459E+02  0.26669032935E+02  0.50400000000E-02 0.  1.
          1   -1    0    0  501    0  0.00000000000E+00 -0.00000000000E+00 -0.80344886196E+02  0.80344886354E+02  0.50400000000E-02 0. -1.
         23    2    1    2    0    0  0.00000000000E+00  0.00000000000E+00 -0.53675853737E+02  0.10701391929E+03  0.92579056202E+02 0.  0.
    9000005    2    3    3    0    0  0.92575088720E+01  0.30632730077E+02 -0.64220435915E+02  0.73320391190E+02  0.15084752324E+02 0.  0.
         22    1    3    3    0    0 -0.92575088720E+01 -0.30632730077E+02  0.10544582178E+02  0.33693528099E+02  0.00000000000E+00 0.  1.
         22    1    4    4    0    0  0.39799538893E+01  0.46602443713E+01 -0.26630892932E+02  0.27326953158E+02  0.00000000000E+00 0.  1.
         22    1    4    4    0    0  0.52775549827E+01  0.25972485706E+02 -0.37589542983E+02  0.45993438032E+02  0.00000000000E+00 0.  1.
<mgrwt>
<rscale>  0 0.92579056E+02</rscale>
<asrwt>0</asrwt>
<pdfrwt beam="2">  1        1 0.12360752E-01 0.92579056E+02</pdfrwt>
<pdfrwt beam="1">  1       -1 0.41029282E-02 0.92579056E+02</pdfrwt>
<totfact> 0.96669214E+04</totfact>
</mgrwt>
</event>
<event>
 7    1  0.3565607E-009  0.9796287E+02  0.7818608E-02  0.1284639E+00
         -1   -1    0    0    0  501 -0.00000000000E+00  0.00000000000E+00  0.38418830030E+01  0.38418863089E+01  0.50400000000E-02 0.  1.
          1   -1    0    0  501    0  0.00000000000E+00 -0.00000000000E+00 -0.62448017453E+03  0.62448017455E+03  0.50400000000E-02 0. -1.
         23    2    1    2    0    0 -0.44408920985E-15  0.00000000000E+00 -0.62063829152E+03  0.62832206086E+03  0.97962866704E+02 0.  0.
    9000005    2    3    3    0    0 -0.30756893056E+01  0.28849561865E+02 -0.56196248004E+03  0.56286514421E+03  0.13175147086E+02 0.  0.
         22    1    3    3    0    0  0.30756893056E+01 -0.28849561865E+02 -0.58675811481E+02  0.65456916651E+02  0.00000000000E+00 0.  1.
         22    1    4    4    0    0  0.41065331730E+01  0.20134024759E+02 -0.37260915003E+03  0.37317532241E+03  0.00000000000E+00 0.  1.
         22    1    4    4    0    0 -0.71822224787E+01  0.87155371058E+01 -0.18935333001E+03  0.18968982180E+03  0.00000000000E+00 0.  1.
<mgrwt>
<rscale>  0 0.97962867E+02</rscale>
<asrwt>0</asrwt>
<pdfrwt beam="2">  1        1 0.96073793E-01 0.97962867E+02</pdfrwt>
<pdfrwt beam="1">  1       -1 0.59105968E-03 0.97962867E+02</pdfrwt>
<totfact> 0.11725271E+05</totfact>
</mgrwt>
</event>
<event>
 7    1  0.3565607E-009  0.9191934E+02  0.7818608E-02  0.1298269E+00
          1   -1    0    0  501    0  0.00000000000E+00  0.00000000000E+00  0.29649533854E+02  0.29649534282E+02  0.50400000000E-02 0. -1.
         -1   -1    0    0    0  501 -0.00000000000E+00 -0.00000000000E+00 -0.71241971729E+02  0.71241971908E+02  0.50400000000E-02 0.  1.
         23    2    1    2    0    0 -0.44408920985E-15  0.00000000000E+00 -0.41592437876E+02  0.10089150619E+03  0.91919340363E+02 0.  0.
    9000005    2    3    3    0    0 -0.13779900685E+01 -0.36594787332E+02 -0.50022402806E+02  0.63313033293E+02  0.12853874348E+02 0.  0.
         22    1    3    3    0    0  0.13779900685E+01  0.36594787332E+02  0.84299649302E+01  0.37578472897E+02  0.00000000000E+00 0. -1.
         22    1    4    4    0    0  0.43960783505E+01 -0.54933924860E+01 -0.71224421604E+01  0.10011595687E+02  0.00000000000E+00 0.  1.
         22    1    4    4    0    0 -0.57740684190E+01 -0.31101394846E+02 -0.42899960646E+02  0.53301437606E+02  0.00000000000E+00 0.  1.
<mgrwt>
<rscale>  0 0.91919340E+02</rscale>
<asrwt>0</asrwt>
<pdfrwt beam="1">  1        1 0.45614668E-02 0.91919340E+02</pdfrwt>
<pdfrwt beam="2">  1       -1 0.10960303E-01 0.91919340E+02</pdfrwt>
<totfact> 0.84523904E+04</totfact>
</mgrwt>
</event>
<event>
 7    1  0.3565607E-009  0.9023153E+02  0.7818608E-02  0.1302292E+00
         -1   -1    0    0    0  501 -0.00000000000E+00  0.00000000000E+00  0.14839943522E+02  0.14839944377E+02  0.50400000000E-02 0.  1.
          1   -1    0    0  501    0  0.00000000000E+00 -0.00000000000E+00 -0.13715902508E+03  0.13715902518E+03  0.50400000000E-02 0. -1.
         23    2    1    2    0    0  0.00000000000E+00  0.00000000000E+00 -0.12231908156E+03  0.15199896955E+03  0.90231530139E+02 0.  0.
    9000005    2    3    3    0    0  0.32279886951E+02 -0.19635012773E+02 -0.10012708526E+03  0.10818105623E+03  0.15817170918E+02 0.  0.
         22    1    3    3    0    0 -0.32279886951E+02  0.19635012773E+02 -0.22191996298E+02  0.43817913322E+02  0.00000000000E+00 0.  1.
         22    1    4    4    0    0  0.31074737915E+02 -0.12367265177E+02 -0.78286187144E+02  0.85131167513E+02  0.00000000000E+00 0.  1.
         22    1    4    4    0    0  0.12051490362E+01 -0.72677475954E+01 -0.21840898119E+02  0.23049888718E+02  0.00000000000E+00 0.  1.
<mgrwt>
<rscale>  0 0.90231530E+02</rscale>
<asrwt>0</asrwt>
<pdfrwt beam="2">  1        1 0.21101388E-01 0.90231530E+02</pdfrwt>
<pdfrwt beam="1">  1       -1 0.22830684E-02 0.90231530E+02</pdfrwt>
<totfact> 0.11346915E+05</totfact>
</mgrwt>
</event>
<event>
 7    1  0.3565607E-009  0.9284698E+02  0.7818608E-02  0.1296100E+00
          1   -1    0    0  501    0  0.00000000000E+00  0.00000000000E+00  0.18386690433E+03  0.18386690440E+03  0.50400000000E-02 0. -1.
         -1   -1    0    0    0  501 -0.00000000000E+00 -0.00000000000E+00 -0.11721198339E+02  0.11721199423E+02  0.50400000000E-02 0.  1.
         23    2    1    2    0    0 -0.88817841970E-15  0.00000000000E+00  0.17214570600E+03  0.19558810383E+03  0.92846983072E+02 0.  0.
    9000005    2    3    3    0    0 -0.54408969659E+01 -0.32049335922E+02  0.22601126784E+02  0.42551034903E+02  0.15588981579E+02 0.  0.
         22    1    3    3    0    0  0.54408969659E+01  0.32049335922E+02  0.14954457921E+03  0.15303706892E+03  0.00000000000E+00 0. -1.
         22    1    4    4    0    0  0.13457510682E+01 -0.27723415367E+02  0.19522636367E+02  0.33934232514E+02  0.00000000000E+00 0.  1.
         22    1    4    4    0    0 -0.67866480341E+01 -0.43259205542E+01  0.30784904164E+01  0.86168023897E+01  0.00000000000E+00 0.  1.
<mgrwt>
<rscale>  0 0.92846983E+02</rscale>
<asrwt>0</asrwt>
<pdfrwt beam="1">  1        1 0.28287215E-01 0.92846983E+02</pdfrwt>
<pdfrwt beam="2">  1       -1 0.18032614E-02 0.92846983E+02</pdfrwt>
<totfact> 0.11094598E+05</totfact>
</mgrwt>
</event>
<event>
 7    1  0.3565607E-009  0.8971047E+02  0.7818608E-02  0.1303554E+00
         -1   -1    0    0    0  501 -0.00000000000E+00  0.00000000000E+00  0.21857906543E+02  0.21857907124E+02  0.50400000000E-02 0.  1.
          1   -1    0    0  501    0  0.00000000000E+00 -0.00000000000E+00 -0.92048715016E+02  0.92048715154E+02  0.50400000000E-02 0. -1.
         23    2    1    2    0    0  0.00000000000E+00  0.00000000000E+00 -0.70190808473E+02  0.11390662228E+03  0.89710473217E+02 0.  0.
    9000005    2    3    3    0    0 -0.35415612102E+01  0.39319037155E+02 -0.97727293317E+01  0.41734095472E+02  0.93647823081E+01 0.  0.
         22    1    3    3    0    0  0.35415612102E+01 -0.39319037155E+02 -0.60418079141E+02  0.72172526807E+02  0.00000000000E+00 0. -1.
         22    1    4    4    0    0 -0.33772735780E+01  0.35835973845E+02 -0.58184568219E+01  0.36461999918E+02  0.00000000000E+00 0.  1.
         22    1    4    4    0    0 -0.16428763214E+00  0.34830633099E+01 -0.39542725098E+01  0.52720955538E+01  0.00000000000E+00 0.  1.
<mgrwt>
<rscale>  0 0.89710473E+02</rscale>
<asrwt>0</asrwt>
<pdfrwt beam="2">  1        1 0.14161341E-01 0.89710473E+02</pdfrwt>
<pdfrwt beam="1">  1       -1 0.33627549E-02 0.89710473E+02</pdfrwt>
<totfact> 0.10769583E+05</totfact>
</mgrwt>
</event>
<event>
 7    1  0.3565607E-009  0.9121926E+02  0.7818608E-02  0.1299926E+00
         -1   -1    0    0    0  501 -0.00000000000E+00  0.00000000000E+00  0.88454274308E+02  0.88454274451E+02  0.50400000000E-02 0.  1.
          1   -1    0    0  501    0  0.00000000000E+00 -0.00000000000E+00 -0.23517669064E+02  0.23517669604E+02  0.50400000000E-02 0. -1.
         23    2    1    2    0    0  0.00000000000E+00  0.35527136788E-14  0.64936605244E+02  0.11197194406E+03  0.91219260877E+02 0.  0.
    9000005    2    3    3    0    0 -0.73111410885E+01 -0.21595203661E+02  0.80148847011E+02  0.84563589403E+02  0.14399908693E+02 0.  0.
         22    1    3    3    0    0  0.73111410885E+01  0.21595203661E+02 -0.15212241767E+02  0.27408354652E+02  0.00000000000E+00 0. -1.
         22    1    4    4    0    0  0.91711196978E-01 -0.18797740662E+02  0.50797792392E+02  0.54164371840E+02  0.00000000000E+00 0.  1.
         22    1    4    4    0    0 -0.74028522855E+01 -0.27974629991E+01  0.29351054619E+02  0.30399217563E+02  0.00000000000E+00 0.  1.
<mgrwt>
<rscale>  0 0.91219261E+02</rscale>
<asrwt>0</asrwt>
<pdfrwt beam="2">  1        1 0.36181030E-02 0.91219261E+02</pdfrwt>
<pdfrwt beam="1">  1       -1 0.13608350E-01 0.91219261E+02</pdfrwt>
<totfact> 0.83097021E+04</totfact>
</mgrwt>
</event>
<event>
 7    1  0.3565607E-009  0.9110538E+02  0.7818608E-02  0.1300197E+00
         -1   -1    0    0    0  501 -0.00000000000E+00  0.00000000000E+00  0.19453862169E+02  0.19453862822E+02  0.50400000000E-02 0.  1.
          1   -1    0    0  501    0  0.00000000000E+00 -0.00000000000E+00 -0.10666506399E+03  0.10666506411E+03  0.50400000000E-02 0. -1.
         23    2    1    2    0    0  0.00000000000E+00  0.00000000000E+00 -0.87211201826E+02  0.12611892694E+03  0.91105378588E+02 0.  0.
    9000005    2    3    3    0    0 -0.30190232033E+02  0.16536581514E+02 -0.84468558975E+02  0.91587336643E+02  0.82700749458E+01 0.  0.
         22    1    3    3    0    0  0.30190232033E+02 -0.16536581514E+02 -0.27426428507E+01  0.34531590293E+02  0.00000000000E+00 0.  1.
         22    1    4    4    0    0 -0.24547877923E+02  0.10594092167E+02 -0.57716730342E+02  0.63608600525E+02  0.00000000000E+00 0. -1.
         22    1    4    4    0    0 -0.56423541101E+01  0.59424893463E+01 -0.26751828633E+02  0.27978736117E+02  0.00000000000E+00 0. -1.
<mgrwt>
<rscale>  0 0.91105379E+02</rscale>
<asrwt>0</asrwt>
<pdfrwt beam="2">  1        1 0.16410010E-01 0.91105379E+02</pdfrwt>
<pdfrwt beam="1">  1       -1 0.29929020E-02 0.91105379E+02</pdfrwt>
<totfact> 0.10581297E+05</totfact>
</mgrwt>
</event>
<event>
 7    1  0.3565607E-009  0.9284583E+02  0.7818608E-02  0.1296103E+00
          1   -1    0    0  501    0  0.00000000000E+00  0.00000000000E+00  0.76710308006E+01  0.76710324562E+01  0.50400000000E-02 0. -1.
         -1   -1    0    0    0  501 -0.00000000000E+00 -0.00000000000E+00 -0.28093832831E+03  0.28093832835E+03  0.50400000000E-02 0.  1.
         23    2    1    2    0    0  0.00000000000E+00  0.00000000000E+00 -0.27326729751E+03  0.28860936081E+03  0.92845825215E+02 0.  0.
    9000005    2    3    3    0    0 -0.16136150510E+02 -0.38223003101E+02 -0.19856077085E+03  0.20315505463E+03  0.11145545386E+02 0.  0.
         22    1    3    3    0    0  0.16136150510E+02  0.38223003101E+02 -0.74706526658E+02  0.85454306179E+02  0.00000000000E+00 0. -1.
         22    1    4    4    0    0 -0.15352464906E+02 -0.35197515653E+02 -0.16321608575E+03  0.16767246027E+03  0.00000000000E+00 0. -1.
         22    1    4    4    0    0 -0.78368560460E+00 -0.30254874479E+01 -0.35344685103E+02  0.35482594359E+02  0.00000000000E+00 0. -1.
<mgrwt>
<rscale>  0 0.92845825E+02</rscale>
<asrwt>0</asrwt>
<pdfrwt beam="1">  1        1 0.11801589E-02 0.92845825E+02</pdfrwt>
<pdfrwt beam="2">  1       -1 0.43221274E-01 0.92845825E+02</pdfrwt>
<totfact> 0.59249566E+04</totfact>
</mgrwt>
</event>
<event>
 7    1  0.3565607E-009  0.9022965E+02  0.7818608E-02  0.1302297E+00
         -1   -1    0    0    0  501 -0.00000000000E+00  0.00000000000E+00  0.36222140294E+03  0.36222140297E+03  0.50400000000E-02 0.  1.
          1   -1    0    0  501    0  0.00000000000E+00 -0.00000000000E+00 -0.56190688558E+01  0.56190711161E+01  0.50400000000E-02 0. -1.
         23    2    1    2    0    0  0.00000000000E+00  0.00000000000E+00  0.35660233408E+03  0.36784047409E+03  0.90229649812E+02 0.  0.
    9000005    2    3    3    0    0 -0.11971371797E+02  0.40238960480E+02  0.23773791678E+03  0.24178002278E+03  0.13258003555E+02 0.  0.
         22    1    3    3    0    0  0.11971371797E+02 -0.40238960480E+02  0.11886441730E+03  0.12606045131E+03  0.00000000000E+00 0. -1.
         22    1    4    4    0    0 -0.10566845937E+02  0.13281610455E+02  0.85730634190E+02  0.87394513832E+02  0.00000000000E+00 0.  1.
         22    1    4    4    0    0 -0.14045258599E+01  0.26957350025E+02  0.15200728259E+03  0.15438550895E+03  0.00000000000E+00 0.  1.
<mgrwt>
<rscale>  0 0.90229650E+02</rscale>
<asrwt>0</asrwt>
<pdfrwt beam="2">  1        1 0.86447189E-03 0.90229650E+02</pdfrwt>
<pdfrwt beam="1">  1       -1 0.55726397E-01 0.90229650E+02</pdfrwt>
<totfact> 0.57456122E+04</totfact>
</mgrwt>
</event>
<event>
 7    1  0.3565607E-009  0.9078388E+02  0.7818608E-02  0.1300964E+00
         -1   -1    0    0    0  501 -0.00000000000E+00  0.00000000000E+00  0.73360475399E+01  0.73360492712E+01  0.50400000000E-02 0.  1.
          1   -1    0    0  501    0  0.00000000000E+00 -0.00000000000E+00 -0.28086351059E+03  0.28086351064E+03  0.50400000000E-02 0. -1.
         23    2    1    2    0    0  0.00000000000E+00  0.00000000000E+00 -0.27352746305E+03  0.28819955991E+03  0.90783882312E+02 0.  0.
    9000005    2    3    3    0    0  0.29312309066E+02 -0.19882964687E+02 -0.22580833956E+03  0.22877180129E+03  0.96222192501E+01 0.  0.
         22    1    3    3    0    0 -0.29312309066E+02  0.19882964687E+02 -0.47719123493E+02  0.59427758619E+02  0.00000000000E+00 0.  1.
         22    1    4    4    0    0  0.12113400958E+02 -0.10143121359E+02 -0.12918837988E+03  0.13015089278E+03  0.00000000000E+00 0. -1.
         22    1    4    4    0    0  0.17198908108E+02 -0.97398433274E+01 -0.96619959676E+02  0.98620908513E+02  0.00000000000E+00 0. -1.
<mgrwt>
<rscale>  0 0.90783882E+02</rscale>
<asrwt>0</asrwt>
<pdfrwt beam="2">  1        1 0.43209763E-01 0.90783882E+02</pdfrwt>
<pdfrwt beam="1">  1       -1 0.11286231E-02 0.90783882E+02</pdfrwt>
<totfact> 0.12797361E+05</totfact>
</mgrwt>
</event>
<event>
 6    1  0.3565607E-009  0.1357130E+03  0.7818608E-02  0.1219217E+00
         -1   -1    0    0    0  501 -0.00000000000E+00  0.00000000000E+00  0.14735105483E+03  0.14735105491E+03  0.50400000000E-02 0.  1.
          1   -1    0    0  501    0  0.00000000000E+00 -0.00000000000E+00 -0.31248535516E+02  0.31248535923E+02  0.50400000000E-02 0. -1.
    9000005    2    1    2    0    0 -0.11084933020E+02  0.63721783734E+02  0.82009142910E+02  0.10548529827E+03  0.14775221452E+02 0.  0.
         22    1    1    2    0    0  0.11084933020E+02 -0.63721783734E+02  0.34093376401E+02  0.73114292561E+02  0.00000000000E+00 0. -1.
         22    1    3    3    0    0  0.22072830082E+01  0.78552269282E+01  0.55744562188E+01  0.98818647282E+01  0.00000000000E+00 0.  1.
         22    1    3    3    0    0 -0.13292216029E+02  0.55866556806E+02  0.76434686691E+02  0.95603433547E+02  0.00000000000E+00 0.  1.
<mgrwt>
<rscale>  0 0.13571300E+03</rscale>
<asrwt>0</asrwt>
<pdfrwt beam="2">  1        1 0.48074671E-02 0.13571300E+03</pdfrwt>
<pdfrwt beam="1">  1       -1 0.22669393E-01 0.13571300E+03</pdfrwt>
<totfact> 0.26548650E+04</totfact>
</mgrwt>
</event>
<event>
 7    1  0.3565607E-009  0.9109841E+02  0.7818608E-02  0.1300213E+00
         -1   -1    0    0    0  501 -0.00000000000E+00  0.00000000000E+00  0.68514833859E+01  0.68514852396E+01  0.50400000000E-02 0.  1.
          1   -1    0    0  501    0  0.00000000000E+00 -0.00000000000E+00 -0.30281466689E+03  0.30281466693E+03  0.50400000000E-02 0. -1.
         23    2    1    2    0    0  0.00000000000E+00  0.00000000000E+00 -0.29596318351E+03  0.30966615217E+03  0.91098407291E+02 0.  0.
    9000005    2    3    3    0    0  0.38443439474E+02 -0.91778713396E+01 -0.22169943927E+03  0.22553984791E+03  0.12467969448E+02 0.  0.
         22    1    3    3    0    0 -0.38443439474E+02  0.91778713396E+01 -0.74263744236E+02  0.84126304263E+02  0.00000000000E+00 0.  1.
         22    1    4    4    0    0  0.24170567176E+02 -0.48993138439E+01 -0.10312894704E+03  0.10603678282E+03  0.00000000000E+00 0. -1.
         22    1    4    4    0    0  0.14272872297E+02 -0.42785574957E+01 -0.11857049223E+03  0.11950306509E+03  0.00000000000E+00 0. -1.
<mgrwt>
<rscale>  0 0.91098407E+02</rscale>
<asrwt>0</asrwt>
<pdfrwt beam="2">  1        1 0.46586862E-01 0.91098407E+02</pdfrwt>
<pdfrwt beam="1">  1       -1 0.10540747E-02 0.91098407E+02</pdfrwt>
<totfact> 0.12864466E+05</totfact>
</mgrwt>
</event>
<event>
 7    1  0.3565607E-009  0.9361124E+02  0.7818608E-02  0.1294335E+00
         -1   -1    0    0    0  501 -0.00000000000E+00  0.00000000000E+00  0.70631241594E+02  0.70631241774E+02  0.50400000000E-02 0.  1.
          1   -1    0    0  501    0  0.00000000000E+00 -0.00000000000E+00 -0.31016955184E+02  0.31016955593E+02  0.50400000000E-02 0. -1.
         23    2    1    2    0    0 -0.11102230246E-15  0.00000000000E+00  0.39614286410E+02  0.10164819737E+03  0.93611240458E+02 0.  0.
    9000005    2    3    3    0    0 -0.79196146861E+00 -0.44349206624E+02  0.34919354619E+02  0.57044142442E+02  0.81971658994E+01 0.  0.
         22    1    3    3    0    0  0.79196146861E+00  0.44349206624E+02  0.46949317908E+01  0.44604054924E+02  0.00000000000E+00 0.  1.
         22    1    4    4    0    0  0.15354945422E+01 -0.39689124424E+02  0.29127018853E+02  0.49254112197E+02  0.00000000000E+00 0. -1.
         22    1    4    4    0    0 -0.23274560108E+01 -0.46600821998E+01  0.57923357663E+01  0.77900302452E+01  0.00000000000E+00 0. -1.
<mgrwt>
<rscale>  0 0.93611240E+02</rscale>
<asrwt>0</asrwt>
<pdfrwt beam="2">  1        1 0.47718394E-02 0.93611240E+02</pdfrwt>
<pdfrwt beam="1">  1       -1 0.10866345E-01 0.93611240E+02</pdfrwt>
<totfact> 0.80791528E+04</totfact>
</mgrwt>
</event>
<event>
 7    1  0.3565607E-009  0.9085733E+02  0.7818608E-02  0.1300789E+00
          1   -1    0    0  501    0  0.00000000000E+00  0.00000000000E+00  0.39493344228E+02  0.39493344549E+02  0.50400000000E-02 0. -1.
         -1   -1    0    0    0  501 -0.00000000000E+00 -0.00000000000E+00 -0.52255981987E+02  0.52255982230E+02  0.50400000000E-02 0.  1.
         23    2    1    2    0    0  0.00000000000E+00  0.00000000000E+00 -0.12762637759E+02  0.91749326779E+02  0.90857327948E+02 0.  0.
    9000005    2    3    3    0    0  0.19835645779E+02  0.16210763828E+02  0.30948693617E+02  0.41084524421E+02  0.85950452511E+01 0.  0.
         22    1    3    3    0    0 -0.19835645779E+02 -0.16210763828E+02 -0.43711331376E+02  0.50664802359E+02  0.00000000000E+00 0.  1.
         22    1    4    4    0    0 -0.71755215324E+00  0.17271789595E+01  0.23801901306E+01  0.30270998180E+01  0.00000000000E+00 0.  1.
         22    1    4    4    0    0  0.20553197933E+02  0.14483584869E+02  0.28568503487E+02  0.38057424603E+02  0.00000000000E+00 0.  1.
<mgrwt>
<rscale>  0 0.90857328E+02</rscale>
<asrwt>0</asrwt>
<pdfrwt beam="1">  1        1 0.60758991E-02 0.90857328E+02</pdfrwt>
<pdfrwt beam="2">  1       -1 0.80393819E-02 0.90857328E+02</pdfrwt>
<totfact> 0.91390081E+04</totfact>
</mgrwt>
</event>
<event>
 7    1  0.3565607E-009  0.8978958E+02  0.7818608E-02  0.1303362E+00
         -1   -1    0    0    0  501 -0.00000000000E+00  0.00000000000E+00  0.92584611115E+02  0.92584611252E+02  0.50400000000E-02 0.  1.
          1   -1    0    0  501    0  0.00000000000E+00 -0.00000000000E+00 -0.21769731391E+02  0.21769731974E+02  0.50400000000E-02 0. -1.
         23    2    1    2    0    0  0.00000000000E+00  0.00000000000E+00  0.70814879724E+02  0.11435434323E+03  0.89789579709E+02 0.  0.
    9000005    2    3    3    0    0 -0.31422412998E+02  0.14952476893E+02  0.69752945051E+02  0.79539514359E+02  0.15815068678E+02 0.  0.
         22    1    3    3    0    0  0.31422412998E+02 -0.14952476893E+02  0.10619346730E+01  0.34814828868E+02  0.00000000000E+00 0. -1.
         22    1    4    4    0    0 -0.30739908974E+02  0.10210356046E+02  0.65752642503E+02  0.73298044793E+02  0.00000000000E+00 0.  1.
         22    1    4    4    0    0 -0.68250402394E+00  0.47421208466E+01  0.40003025481E+01  0.62414695659E+01  0.00000000000E+00 0.  1.
<mgrwt>
<rscale>  0 0.89789580E+02</rscale>
<asrwt>0</asrwt>
<pdfrwt beam="2">  1        1 0.33491895E-02 0.89789580E+02</pdfrwt>
<pdfrwt beam="1">  1       -1 0.14243787E-01 0.89789580E+02</pdfrwt>
<totfact> 0.85837439E+04</totfact>
</mgrwt>
</event>
<event>
 7    1  0.3565607E-009  0.8991892E+02  0.7818608E-02  0.1303048E+00
          1   -1    0    0  501    0  0.00000000000E+00  0.00000000000E+00  0.11313964008E+03  0.11313964019E+03  0.50400000000E-02 0. -1.
         -1   -1    0    0    0  501 -0.00000000000E+00 -0.00000000000E+00 -0.17866002687E+02  0.17866003398E+02  0.50400000000E-02 0.  1.
         23    2    1    2    0    0  0.00000000000E+00  0.00000000000E+00  0.95273637391E+02  0.13100564359E+03  0.89918922759E+02 0.  0.
    9000005    2    3    3    0    0 -0.21941797413E+02  0.17491159191E+02  0.98703424061E+02  0.10273646319E+03  0.50031814455E+01 0.  0.
         22    1    3    3    0    0  0.21941797413E+02 -0.17491159191E+02 -0.34297866698E+01  0.28269180394E+02  0.00000000000E+00 0.  1.
         22    1    4    4    0    0 -0.13624104369E+02  0.78241046339E+01  0.51791277005E+02  0.54121799739E+02  0.00000000000E+00 0. -1.
         22    1    4    4    0    0 -0.83176930438E+01  0.96670545570E+01  0.46912147056E+02  0.48614663454E+02  0.00000000000E+00 0. -1.
<mgrwt>
<rscale>  0 0.89918923E+02</rscale>
<asrwt>0</asrwt>
<pdfrwt beam="1">  1        1 0.17406098E-01 0.89918923E+02</pdfrwt>
<pdfrwt beam="2">  1       -1 0.27486159E-02 0.89918923E+02</pdfrwt>
<totfact> 0.11074534E+05</totfact>
</mgrwt>
</event>
<event>
 7    1  0.3565607E-009  0.8994817E+02  0.7818608E-02  0.1302977E+00
          1   -1    0    0  501    0  0.00000000000E+00  0.00000000000E+00  0.17812465465E+03  0.17812465473E+03  0.50400000000E-02 0. -1.
         -1   -1    0    0    0  501 -0.00000000000E+00 -0.00000000000E+00 -0.11355351688E+02  0.11355352807E+02  0.50400000000E-02 0.  1.
         23    2    1    2    0    0  0.71054273576E-14  0.00000000000E+00  0.16676930297E+03  0.18948000753E+03  0.89948167533E+02 0.  0.
    9000005    2    3    3    0    0  0.41222046741E+02 -0.16325772259E+02  0.79532052539E+02  0.91622325977E+02  0.10174244884E+02 0.  0.
         22    1    3    3    0    0 -0.41222046741E+02  0.16325772259E+02  0.87237250427E+02  0.97857681556E+02  0.00000000000E+00 0.  1.
         22    1    4    4    0    0  0.34434261277E+02 -0.15957838656E+02  0.60562748709E+02  0.71471795104E+02  0.00000000000E+00 0. -1.
         22    1    4    4    0    0  0.67877854639E+01 -0.36793360285E+00  0.18969303830E+02  0.20150530872E+02  0.00000000000E+00 0. -1.
<mgrwt>
<rscale>  0 0.89948168E+02</rscale>
<asrwt>0</asrwt>
<pdfrwt beam="1">  1        1 0.27403794E-01 0.89948168E+02</pdfrwt>
<pdfrwt beam="2">  1       -1 0.17469772E-02 0.89948168E+02</pdfrwt>
<totfact> 0.12008845E+05</totfact>
</mgrwt>
</event>
<event>
 7    1  0.3565607E-009  0.8917691E+02  0.7818608E-02  0.1304857E+00
         -1   -1    0    0    0  501 -0.00000000000E+00  0.00000000000E+00  0.18756050668E+02  0.18756051345E+02  0.50400000000E-02 0.  1.
          1   -1    0    0  501    0  0.00000000000E+00 -0.00000000000E+00 -0.10599941280E+03  0.10599941292E+03  0.50400000000E-02 0. -1.
         23    2    1    2    0    0  0.00000000000E+00  0.35527136788E-14 -0.87243362128E+02  0.12475546426E+03  0.89176911965E+02 0.  0.
    9000005    2    3    3    0    0 -0.23259342936E+02  0.28072858144E+02 -0.78425114959E+02  0.87247546679E+02  0.11513181448E+02 0.  0.
         22    1    3    3    0    0  0.23259342936E+02 -0.28072858144E+02 -0.88182471693E+01  0.37507917582E+02  0.00000000000E+00 0.  1.
         22    1    4    4    0    0 -0.10010713993E+02  0.12943755448E+02 -0.48559740273E+02  0.51242595320E+02  0.00000000000E+00 0. -1.
         22    1    4    4    0    0 -0.13248628943E+02  0.15129102696E+02 -0.29865374686E+02  0.36004951359E+02  0.00000000000E+00 0. -1.
<mgrwt>
<rscale>  0 0.89176912E+02</rscale>
<asrwt>0</asrwt>
<pdfrwt beam="2">  1        1 0.16307602E-01 0.89176912E+02</pdfrwt>
<pdfrwt beam="1">  1       -1 0.28855464E-02 0.89176912E+02</pdfrwt>
<totfact> 0.11202332E+05</totfact>
</mgrwt>
</event>
<event>
 7    1  0.3565607E-009  0.8907607E+02  0.7818608E-02  0.1305105E+00
         -1   -1    0    0    0  501 -0.00000000000E+00  0.00000000000E+00  0.49795387708E+01  0.49795413214E+01  0.50400000000E-02 0.  1.
          1   -1    0    0  501    0  0.00000000000E+00 -0.00000000000E+00 -0.39835742129E+03  0.39835742132E+03  0.50400000000E-02 0. -1.
         23    2    1    2    0    0  0.00000000000E+00  0.00000000000E+00 -0.39337788252E+03  0.40333696264E+03  0.89076074111E+02 0.  0.
    9000005    2    3    3    0    0 -0.13031950933E+02  0.11835991377E+02 -0.38151113246E+03  0.38210627273E+03  0.12022355640E+02 0.  0.
         22    1    3    3    0    0  0.13031950933E+02 -0.11835991377E+02 -0.11866750056E+02  0.21230689906E+02  0.00000000000E+00 0.  1.
         22    1    4    4    0    0 -0.82066934155E+01  0.12620476525E+02 -0.21650703864E+03  0.21702977682E+03  0.00000000000E+00 0. -1.
         22    1    4    4    0    0 -0.48252575173E+01 -0.78448514844E+00 -0.16500409382E+03  0.16507649592E+03  0.00000000000E+00 0. -1.
<mgrwt>
<rscale>  0 0.89076074E+02</rscale>
<asrwt>0</asrwt>
<pdfrwt beam="2">  1        1 0.61285732E-01 0.89076074E+02</pdfrwt>
<pdfrwt beam="1">  1       -1 0.76608340E-03 0.89076074E+02</pdfrwt>
<totfact> 0.14339402E+05</totfact>
</mgrwt>
</event>
<event>
 7    1  0.3565607E-009  0.6479632E+02  0.7818608E-02  0.1378739E+00
          1   -1    0    0  501    0  0.00000000000E+00  0.00000000000E+00  0.26278000211E+02  0.26278000695E+02  0.50400000000E-02 0. -1.
         -1   -1    0    0    0  501 -0.00000000000E+00 -0.00000000000E+00 -0.39943712415E+02  0.39943712733E+02  0.50400000000E-02 0.  1.
         23    2    1    2    0    0  0.00000000000E+00  0.00000000000E+00 -0.13665712204E+02  0.66221713428E+02  0.64796324273E+02 0.  0.
    9000005    2    3    3    0    0 -0.24413549858E+02 -0.18535317896E+02  0.12021467605E+01  0.32153654247E+02  0.96349830540E+01 0.  0.
         22    1    3    3    0    0  0.24413549858E+02  0.18535317896E+02 -0.14867858964E+02  0.34068059181E+02  0.00000000000E+00 0.  1.
         22    1    4    4    0    0 -0.22007708671E+02 -0.14228128328E+02  0.39562793451E+01  0.26503415306E+02  0.00000000000E+00 0. -1.
         22    1    4    4    0    0 -0.24058411870E+01 -0.43071895684E+01 -0.27541325846E+01  0.56502389409E+01  0.00000000000E+00 0. -1.
<mgrwt>
<rscale>  0 0.64796324E+02</rscale>
<asrwt>0</asrwt>
<pdfrwt beam="1">  1        1 0.40427693E-02 0.64796324E+02</pdfrwt>
<pdfrwt beam="2">  1       -1 0.61451866E-02 0.64796324E+02</pdfrwt>
<totfact> 0.22076317E+05</totfact>
</mgrwt>
</event>
<event>
 7    1  0.3565607E-009  0.9130045E+02  0.7818608E-02  0.1299733E+00
          1   -1    0    0  501    0  0.00000000000E+00  0.00000000000E+00  0.61025255789E+02  0.61025255997E+02  0.50400000000E-02 0. -1.
         -1   -1    0    0    0  501 -0.00000000000E+00 -0.00000000000E+00 -0.34148860292E+02  0.34148860664E+02  0.50400000000E-02 0.  1.
         23    2    1    2    0    0 -0.35527136788E-14  0.35527136788E-14  0.26876395497E+02  0.95174116661E+02  0.91300448232E+02 0.  0.
    9000005    2    3    3    0    0 -0.22036093964E+02  0.25216215800E+02  0.45594761663E+02  0.56809755486E+02  0.51979852702E+01 0.  0.
         22    1    3    3    0    0  0.22036093964E+02 -0.25216215800E+02 -0.18718366166E+02  0.38364361175E+02  0.00000000000E+00 0.  1.
         22    1    4    4    0    0 -0.17026557537E+01  0.51521257640E+00  0.14756848004E+01  0.23113040139E+01  0.00000000000E+00 0.  1.
         22    1    4    4    0    0 -0.20333438210E+02  0.24701003223E+02  0.44119076863E+02  0.54498451472E+02  0.00000000000E+00 0.  1.
<mgrwt>
<rscale>  0 0.91300448E+02</rscale>
<asrwt>0</asrwt>
<pdfrwt beam="1">  1        1 0.93885009E-02 0.91300448E+02</pdfrwt>
<pdfrwt beam="2">  1       -1 0.52536709E-02 0.91300448E+02</pdfrwt>
<totfact> 0.96256342E+04</totfact>
</mgrwt>
</event>
<event>
 7    1  0.3565607E-009  0.9181920E+02  0.7818608E-02  0.1298505E+00
          1   -1    0    0  501    0  0.00000000000E+00  0.00000000000E+00  0.13503151530E+02  0.13503152471E+02  0.50400000000E-02 0. -1.
         -1   -1    0    0    0  501 -0.00000000000E+00 -0.00000000000E+00 -0.15608884973E+03  0.15608884981E+03  0.50400000000E-02 0.  1.
         23    2    1    2    0    0  0.71054273576E-14 -0.17763568394E-14 -0.14258569820E+03  0.16959200228E+03  0.91819202279E+02 0.  0.
    9000005    2    3    3    0    0 -0.43238173808E+02 -0.10944037093E+02 -0.69122394314E+02  0.83649180360E+02  0.15164707615E+02 0.  0.
         22    1    3    3    0    0  0.43238173808E+02  0.10944037093E+02 -0.73463303888E+02  0.85942821924E+02  0.00000000000E+00 0. -1.
         22    1    4    4    0    0 -0.34644785932E+02 -0.12671076055E+02 -0.62830981800E+02  0.72859794363E+02  0.00000000000E+00 0. -1.
         22    1    4    4    0    0 -0.85933878765E+01  0.17270389624E+01 -0.62914125140E+01  0.10789385997E+02  0.00000000000E+00 0. -1.
<mgrwt>
<rscale>  0 0.91819202E+02</rscale>
<asrwt>0</asrwt>
<pdfrwt beam="1">  1        1 0.20774081E-02 0.91819202E+02</pdfrwt>
<pdfrwt beam="2">  1       -1 0.24013668E-01 0.91819202E+02</pdfrwt>
<totfact> 0.72746015E+04</totfact>
</mgrwt>
</event>
<event>
 7    1  0.3565607E-009  0.9243236E+02  0.7818608E-02  0.1297066E+00
          1   -1    0    0  501    0  0.00000000000E+00  0.00000000000E+00  0.94991967343E+03  0.94991967344E+03  0.50400000000E-02 0. -1.
         -1   -1    0    0    0  501 -0.00000000000E+00 -0.00000000000E+00 -0.22485401604E+01  0.22485458089E+01  0.50400000000E-02 0.  1.
         23    2    1    2    0    0 -0.35527136788E-14  0.35527136788E-14  0.94767113327E+03  0.95216821925E+03  0.92432358628E+02 0.  0.
    9000005    2    3    3    0    0 -0.22536104411E+02  0.23254503727E+02  0.80758292174E+03  0.80838590130E+03  0.15777895685E+02 0.  0.
         22    1    3    3    0    0  0.22536104411E+02 -0.23254503727E+02  0.14008821153E+03  0.14378231795E+03  0.00000000000E+00 0.  1.
         22    1    4    4    0    0  0.10990503172E+01  0.75728597064E+01  0.17746452050E+03  0.17762942367E+03  0.00000000000E+00 0. -1.
         22    1    4    4    0    0 -0.23635154728E+02  0.15681644020E+02  0.63011840124E+03  0.63075647763E+03  0.00000000000E+00 0. -1.
<mgrwt>
<rscale>  0 0.92432359E+02</rscale>
<asrwt>0</asrwt>
<pdfrwt beam="1">  1        1 0.14614168E+00 0.92432359E+02</pdfrwt>
<pdfrwt beam="2">  1       -1 0.34592923E-03 0.92432359E+02</pdfrwt>
<totfact> 0.13282263E+05</totfact>
</mgrwt>
</event>
<event>
 7    1  0.3613410E-009  0.8041036E+02  0.7818608E-02  0.1327891E+00
          1   -1    0    0  501    0  0.00000000000E+00  0.00000000000E+00  0.46956129295E+01  0.46956156343E+01  0.50400000000E-02 0. -1.
         -1   -1    0    0    0  501 -0.00000000000E+00 -0.00000000000E+00 -0.34424818280E+03  0.34424818284E+03  0.50400000000E-02 0.  1.
         23    2    1    2    0    0  0.17763568394E-14  0.00000000000E+00 -0.33955256987E+03  0.34894379847E+03  0.80410364916E+02 0.  0.
    9000005    2    3    3    0    0  0.10992284463E+02  0.15896735615E+02 -0.32216609961E+03  0.32294714736E+03  0.11416117118E+02 0.  0.
         22    1    3    3    0    0 -0.10992284463E+02 -0.15896735615E+02 -0.17386470268E+02  0.25996651117E+02  0.00000000000E+00 0. -1.
         22    1    4    4    0    0  0.12768541087E+02  0.15044356310E+02 -0.25910787253E+03  0.25985814958E+03  0.00000000000E+00 0. -1.
         22    1    4    4    0    0 -0.17762566244E+01  0.85237930562E+00 -0.63058227077E+02  0.63088997774E+02  0.00000000000E+00 0. -1.
<mgrwt>
<rscale>  0 0.80410365E+02</rscale>
<asrwt>0</asrwt>
<pdfrwt beam="1">  1        1 0.72240247E-03 0.80410365E+02</pdfrwt>
<pdfrwt beam="2">  1       -1 0.52961239E-01 0.80410365E+02</pdfrwt>
<totfact> 0.79359186E+04</totfact>
</mgrwt>
</event>
<event>
 7    1  0.3565607E-009  0.9826569E+02  0.7818608E-02  0.1283986E+00
          1   -1    0    0  501    0  0.00000000000E+00  0.00000000000E+00  0.25516557220E+03  0.25516557225E+03  0.50400000000E-02 0. -1.
         -1   -1    0    0    0  501 -0.00000000000E+00 -0.00000000000E+00 -0.94606654486E+01  0.94606667911E+01  0.50400000000E-02 0.  1.
         23    2    1    2    0    0  0.71054273576E-14  0.00000000000E+00  0.24570490676E+03  0.26462623905E+03  0.98265686724E+02 0.  0.
    9000005    2    3    3    0    0  0.38836931715E+02 -0.27429820418E+02  0.15290912960E+03  0.16035851359E+03  0.85409983793E+01 0.  0.
         22    1    3    3    0    0 -0.38836931715E+02  0.27429820418E+02  0.92795777160E+02  0.10426772546E+03  0.00000000000E+00 0.  1.
         22    1    4    4    0    0  0.39138425853E+02 -0.27367158002E+02  0.15267946763E+03  0.15997436530E+03  0.00000000000E+00 0.  1.
         22    1    4    4    0    0 -0.30149413756E+00 -0.62662416005E-01  0.22966196428E+00  0.38414829324E+00  0.00000000000E+00 0.  1.
<mgrwt>
<rscale>  0 0.98265687E+02</rscale>
<asrwt>0</asrwt>
<pdfrwt beam="1">  1        1 0.39256244E-01 0.98265687E+02</pdfrwt>
<pdfrwt beam="2">  1       -1 0.14554870E-02 0.98265687E+02</pdfrwt>
<totfact> 0.10156774E+05</totfact>
</mgrwt>
</event>
<event>
 7    1  0.3565607E-009  0.9346950E+02  0.7818608E-02  0.1294661E+00
          1   -1    0    0  501    0  0.00000000000E+00  0.00000000000E+00  0.68345576242E+02  0.68345576428E+02  0.50400000000E-02 0. -1.
         -1   -1    0    0    0  501 -0.00000000000E+00 -0.00000000000E+00 -0.31957250971E+02  0.31957251369E+02  0.50400000000E-02 0.  1.
         23    2    1    2    0    0  0.00000000000E+00  0.00000000000E+00  0.36388325271E+02  0.10030282780E+03  0.93469497955E+02 0.  0.
    9000005    2    3    3    0    0 -0.31283381128E+01 -0.28290045820E+02  0.56863799328E+02  0.65240622650E+02  0.14585402905E+02 0.  0.
         22    1    3    3    0    0  0.31283381128E+01  0.28290045820E+02 -0.20475474057E+02  0.35062205146E+02  0.00000000000E+00 0.  1.
         22    1    4    4    0    0  0.56704913852E+01 -0.13034215763E+02  0.28630178733E+02  0.31964548916E+02  0.00000000000E+00 0.  1.
         22    1    4    4    0    0 -0.87988294980E+01 -0.15255830058E+02  0.28233620594E+02  0.33276073734E+02  0.00000000000E+00 0.  1.
<mgrwt>
<rscale>  0 0.93469498E+02</rscale>
<asrwt>0</asrwt>
<pdfrwt beam="1">  1        1 0.10514704E-01 0.93469498E+02</pdfrwt>
<pdfrwt beam="2">  1       -1 0.49165002E-02 0.93469498E+02</pdfrwt>
<totfact> 0.91774077E+04</totfact>
</mgrwt>
</event>
<event>
 7    1  0.3565607E-009  0.9385463E+02  0.7818608E-02  0.1293777E+00
          1   -1    0    0  501    0  0.00000000000E+00  0.00000000000E+00  0.66470908335E+02  0.66470908526E+02  0.50400000000E-02 0. -1.
         -1   -1    0    0    0  501 -0.00000000000E+00 -0.00000000000E+00 -0.33129876699E+02  0.33129877082E+02  0.50400000000E-02 0.  1.
         23    2    1    2    0    0  0.00000000000E+00  0.00000000000E+00  0.33341031636E+02  0.99600785608E+02  0.93854632827E+02 0.  0.
    9000005    2    3    3    0    0  0.80793734319E+01  0.45454151867E+02  0.25303517843E+02  0.52739737551E+02  0.31393796754E+01 0.  0.
         22    1    3    3    0    0 -0.80793734319E+01 -0.45454151867E+02  0.80375137931E+01  0.46861048057E+02  0.00000000000E+00 0. -1.
         22    1    4    4    0    0  0.55646174219E+01  0.35320914021E+02  0.20827105442E+02  0.41379949921E+02  0.00000000000E+00 0. -1.
         22    1    4    4    0    0  0.25147560100E+01  0.10133237846E+02  0.44764124013E+01  0.11359787631E+02  0.00000000000E+00 0. -1.
<mgrwt>
<rscale>  0 0.93854633E+02</rscale>
<asrwt>0</asrwt>
<pdfrwt beam="1">  1        1 0.10226294E-01 0.93854633E+02</pdfrwt>
<pdfrwt beam="2">  1       -1 0.50969042E-02 0.93854633E+02</pdfrwt>
<totfact> 0.90339504E+04</totfact>
</mgrwt>
</event>
<event>
 7    1  0.3565607E-009  0.8993077E+02  0.7818608E-02  0.1303019E+00
          1   -1    0    0  501    0  0.00000000000E+00  0.00000000000E+00  0.40997915046E+03  0.40997915049E+03  0.50400000000E-02 0. -1.
         -1   -1    0    0    0  501 -0.00000000000E+00 -0.00000000000E+00 -0.49316782097E+01  0.49316807850E+01  0.50400000000E-02 0.  1.
         23    2    1    2    0    0  0.00000000000E+00  0.00000000000E+00  0.40504747225E+03  0.41491083127E+03  0.89930768559E+02 0.  0.
    9000005    2    3    3    0    0  0.15569889628E+02  0.40780303152E+02  0.16834935505E+03  0.17422129417E+03  0.10300456629E+02 0.  0.
         22    1    3    3    0    0 -0.15569889628E+02 -0.40780303152E+02  0.23669811719E+03  0.24068953710E+03  0.00000000000E+00 0.  1.
         22    1    4    4    0    0  0.48364238793E+01  0.19611374644E+02  0.95143388429E+02  0.97263874965E+02  0.00000000000E+00 0.  1.
         22    1    4    4    0    0  0.10733465749E+02  0.21168928509E+02  0.73205966624E+02  0.76957419205E+02  0.00000000000E+00 0.  1.
<mgrwt>
<rscale>  0 0.89930769E+02</rscale>
<asrwt>0</asrwt>
<pdfrwt beam="1">  1        1 0.63073702E-01 0.89930769E+02</pdfrwt>
<pdfrwt beam="2">  1       -1 0.75872009E-03 0.89930769E+02</pdfrwt>
<totfact> 0.14046389E+05</totfact>
</mgrwt>
</event>
<event>
 7    1  0.3565607E-009  0.9244043E+02  0.7818608E-02  0.1297047E+00
          1   -1    0    0  501    0  0.00000000000E+00  0.00000000000E+00  0.12192796903E+02  0.12192797945E+02  0.50400000000E-02 0. -1.
         -1   -1    0    0    0  501 -0.00000000000E+00 -0.00000000000E+00 -0.17521066696E+03  0.17521066704E+03  0.50400000000E-02 0.  1.
         23    2    1    2    0    0  0.00000000000E+00  0.00000000000E+00 -0.16301787006E+03  0.18740346498E+03  0.92440427995E+02 0.  0.
    9000005    2    3    3    0    0  0.12888541725E+02 -0.31246960105E+02 -0.14500356343E+03  0.14910199938E+03  0.79300560513E+01 0.  0.
         22    1    3    3    0    0 -0.12888541725E+02  0.31246960105E+02 -0.18014306630E+02  0.38301465597E+02  0.00000000000E+00 0. -1.
         22    1    4    4    0    0  0.13135692723E+01 -0.13276810120E+02 -0.56395745210E+02  0.57952387604E+02  0.00000000000E+00 0. -1.
         22    1    4    4    0    0  0.11574972452E+02 -0.17970149985E+02 -0.88607818221E+02  0.91149611780E+02  0.00000000000E+00 0. -1.
<mgrwt>
<rscale>  0 0.92440428E+02</rscale>
<asrwt>0</asrwt>
<pdfrwt beam="1">  1        1 0.18758151E-02 0.92440428E+02</pdfrwt>
<pdfrwt beam="2">  1       -1 0.26955486E-01 0.92440428E+02</pdfrwt>
<totfact> 0.69443104E+04</totfact>
</mgrwt>
</event>
<event>
 7    1  0.3565607E-009  0.8967184E+02  0.7818608E-02  0.1303648E+00
         -1   -1    0    0    0  501 -0.00000000000E+00  0.00000000000E+00  0.73353723651E+01  0.73353740966E+01  0.50400000000E-02 0.  1.
          1   -1    0    0  501    0  0.00000000000E+00 -0.00000000000E+00 -0.27405009884E+03  0.27405009889E+03  0.50400000000E-02 0. -1.
         23    2    1    2    0    0  0.00000000000E+00  0.00000000000E+00 -0.26671472647E+03  0.28138547298E+03  0.89671841106E+02 0.  0.
    9000005    2    3    3    0    0  0.31665375671E+02  0.14701665785E+02 -0.22083954648E+03  0.22373682050E+03  0.83201301652E+01 0.  0.
         22    1    3    3    0    0 -0.31665375671E+02 -0.14701665785E+02 -0.45875179995E+02  0.57648652480E+02  0.00000000000E+00 0.  1.
         22    1    4    4    0    0  0.53293642314E+01 -0.32901171150E+00 -0.43050430389E+02  0.43380294242E+02  0.00000000000E+00 0. -1.
         22    1    4    4    0    0  0.26336011439E+02  0.15030677497E+02 -0.17778911609E+03  0.18035652626E+03  0.00000000000E+00 0. -1.
<mgrwt>
<rscale>  0 0.89671841E+02</rscale>
<asrwt>0</asrwt>
<pdfrwt beam="2">  1        1 0.42161546E-01 0.89671841E+02</pdfrwt>
<pdfrwt beam="1">  1       -1 0.11285192E-02 0.89671841E+02</pdfrwt>
<totfact> 0.13161544E+05</totfact>
</mgrwt>
</event>
<event>
 7    1  0.3565607E-009  0.9142220E+02  0.7818608E-02  0.1299444E+00
          1   -1    0    0  501    0  0.00000000000E+00  0.00000000000E+00  0.20663027433E+03  0.20663027439E+03  0.50400000000E-02 0. -1.
         -1   -1    0    0    0  501 -0.00000000000E+00 -0.00000000000E+00 -0.10112286525E+02  0.10112287781E+02  0.50400000000E-02 0.  1.
         23    2    1    2    0    0  0.00000000000E+00 -0.17763568394E-14  0.19651798780E+03  0.21674256217E+03  0.91422200400E+02 0.  0.
    9000005    2    3    3    0    0 -0.39906092049E+02  0.94536302700E+01  0.14335309513E+03  0.14959814229E+03  0.12150184597E+02 0.  0.
         22    1    3    3    0    0  0.39906092049E+02 -0.94536302700E+01  0.53164892671E+02  0.67144419877E+02  0.00000000000E+00 0.  1.
         22    1    4    4    0    0 -0.29805392401E+02  0.94799099874E+01  0.12246809621E+03  0.12639883187E+03  0.00000000000E+00 0. -1.
         22    1    4    4    0    0 -0.10100699647E+02 -0.26279717422E-01  0.20884998921E+02  0.23199310419E+02  0.00000000000E+00 0. -1.
<mgrwt>
<rscale>  0 0.91422200E+02</rscale>
<asrwt>0</asrwt>
<pdfrwt beam="1">  1        1 0.31789272E-01 0.91422200E+02</pdfrwt>
<pdfrwt beam="2">  1       -1 0.15557366E-02 0.91422200E+02</pdfrwt>
<totfact> 0.11830242E+05</totfact>
</mgrwt>
</event>
<event>
 7    1  0.3565607E-009  0.9487934E+02  0.7818608E-02  0.1291448E+00
          1   -1    0    0  501    0  0.00000000000E+00  0.00000000000E+00  0.79252904592E+02  0.79252904752E+02  0.50400000000E-02 0. -1.
         -1   -1    0    0    0  501 -0.00000000000E+00 -0.00000000000E+00 -0.28396714300E+02  0.28396714748E+02  0.50400000000E-02 0.  1.
         23    2    1    2    0    0 -0.88817841970E-15  0.00000000000E+00  0.50856190292E+02  0.10764961950E+03  0.94879336462E+02 0.  0.
    9000005    2    3    3    0    0  0.49804816487E+01  0.30361687974E+02 -0.14185476949E+02  0.35697859469E+02  0.11245982407E+02 0.  0.
         22    1    3    3    0    0 -0.49804816487E+01 -0.30361687974E+02  0.65041667241E+02  0.71951760031E+02  0.00000000000E+00 0. -1.
         22    1    4    4    0    0  0.70493284373E+01  0.14135761296E+02 -0.10387713760E+02  0.18905485341E+02  0.00000000000E+00 0.  1.
         22    1    4    4    0    0 -0.20688467886E+01  0.16225926678E+02 -0.37977631892E+01  0.16792374128E+02  0.00000000000E+00 0.  1.
<mgrwt>
<rscale>  0 0.94879336E+02</rscale>
<asrwt>0</asrwt>
<pdfrwt beam="1">  1        1 0.12192755E-01 0.94879336E+02</pdfrwt>
<pdfrwt beam="2">  1       -1 0.43687253E-02 0.94879336E+02</pdfrwt>
<totfact> 0.90144187E+04</totfact>
</mgrwt>
</event>
<event>
 7    1  0.3565607E-009  0.8905184E+02  0.7818608E-02  0.1305164E+00
          1   -1    0    0  501    0  0.00000000000E+00  0.00000000000E+00  0.27531092055E+03  0.27531092060E+03  0.50400000000E-02 0. -1.
         -1   -1    0    0    0  501 -0.00000000000E+00 -0.00000000000E+00 -0.72011582156E+01  0.72011599793E+01  0.50400000000E-02 0.  1.
         23    2    1    2    0    0 -0.17763568394E-14  0.00000000000E+00  0.26810976234E+03  0.28251208058E+03  0.89051844518E+02 0.  0.
    9000005    2    3    3    0    0 -0.12674513591E+02 -0.13089228322E+02  0.26260048633E+03  0.26347728836E+03  0.11370789993E+02 0.  0.
         22    1    3    3    0    0  0.12674513591E+02  0.13089228322E+02  0.55092760056E+01  0.19034792222E+02  0.00000000000E+00 0.  1.
         22    1    4    4    0    0 -0.12408187261E+02 -0.88064943066E+01  0.14450331272E+03  0.14530218457E+03  0.00000000000E+00 0. -1.
         22    1    4    4    0    0 -0.26632632947E+00 -0.42827340157E+01  0.11809717361E+03  0.11817510379E+03  0.00000000000E+00 0. -1.
<mgrwt>
<rscale>  0 0.89051845E+02</rscale>
<asrwt>0</asrwt>
<pdfrwt beam="1">  1        1 0.42355521E-01 0.89051845E+02</pdfrwt>
<pdfrwt beam="2">  1       -1 0.11078708E-02 0.89051845E+02</pdfrwt>
<totfact> 0.13418678E+05</totfact>
</mgrwt>
</event>
<event>
 7    1  0.3565607E-009  0.9128395E+02  0.7818608E-02  0.1299772E+00
          1   -1    0    0  501    0  0.00000000000E+00  0.00000000000E+00  0.10715245229E+03  0.10715245241E+03  0.50400000000E-02 0. -1.
         -1   -1    0    0    0  501 -0.00000000000E+00 -0.00000000000E+00 -0.19441363103E+02  0.19441363756E+02  0.50400000000E-02 0.  1.
         23    2    1    2    0    0  0.00000000000E+00  0.00000000000E+00  0.87711089191E+02  0.12659381617E+03  0.91283947796E+02 0.  0.
    9000005    2    3    3    0    0  0.25729413040E+02  0.34690133364E+02  0.31591677529E+02  0.55778588898E+02  0.15741945311E+02 0.  0.
         22    1    3    3    0    0 -0.25729413040E+02 -0.34690133364E+02  0.56119411662E+02  0.70815227271E+02  0.00000000000E+00 0. -1.
         22    1    4    4    0    0  0.20173546451E+02  0.18125340437E+02  0.12385500107E+02  0.29814435351E+02  0.00000000000E+00 0.  1.
         22    1    4    4    0    0  0.55558665882E+01  0.16564792927E+02  0.19206177422E+02  0.25964153547E+02  0.00000000000E+00 0.  1.
<mgrwt>
<rscale>  0 0.91283948E+02</rscale>
<asrwt>0</asrwt>
<pdfrwt beam="1">  1        1 0.16484993E-01 0.91283948E+02</pdfrwt>
<pdfrwt beam="2">  1       -1 0.29909790E-02 0.91283948E+02</pdfrwt>
<totfact> 0.10533129E+05</totfact>
</mgrwt>
</event>
<event>
 7    1  0.3565607E-009  0.9382011E+02  0.7818608E-02  0.1293856E+00
          1   -1    0    0  501    0  0.00000000000E+00  0.00000000000E+00  0.67798085955E+02  0.67798086142E+02  0.50400000000E-02 0. -1.
         -1   -1    0    0    0  501 -0.00000000000E+00 -0.00000000000E+00 -0.32457451232E+02  0.32457451624E+02  0.50400000000E-02 0.  1.
         23    2    1    2    0    0  0.00000000000E+00  0.00000000000E+00  0.35340634722E+02  0.10025553777E+03  0.93820106534E+02 0.  0.
    9000005    2    3    3    0    0 -0.23731654497E+02  0.35383108499E+02  0.38321640677E+02  0.57546730843E+02  0.52841550199E+01 0.  0.
         22    1    3    3    0    0  0.23731654497E+02 -0.35383108499E+02 -0.29810059545E+01  0.42708806923E+02  0.00000000000E+00 0.  1.
         22    1    4    4    0    0 -0.76083293350E+01  0.10337987292E+02  0.14815792132E+02  0.19602763913E+02  0.00000000000E+00 0.  1.
         22    1    4    4    0    0 -0.16123325162E+02  0.25045121207E+02  0.23505848545E+02  0.37943966930E+02  0.00000000000E+00 0.  1.
<mgrwt>
<rscale>  0 0.93820107E+02</rscale>
<asrwt>0</asrwt>
<pdfrwt beam="1">  1        1 0.10430475E-01 0.93820107E+02</pdfrwt>
<pdfrwt beam="2">  1       -1 0.49934541E-02 0.93820107E+02</pdfrwt>
<totfact> 0.90711778E+04</totfact>
</mgrwt>
</event>
<event>
 7    1  0.3565607E-009  0.8682025E+02  0.7818608E-02  0.1310740E+00
          1   -1    0    0  501    0  0.00000000000E+00  0.00000000000E+00  0.13803192030E+03  0.13803192039E+03  0.50400000000E-02 0. -1.
         -1   -1    0    0    0  501 -0.00000000000E+00 -0.00000000000E+00 -0.13652197807E+02  0.13652198737E+02  0.50400000000E-02 0.  1.
         23    2    1    2    0    0 -0.71054273576E-14  0.35527136788E-14  0.12437972249E+03  0.15168411913E+03  0.86820254713E+02 0.  0.
    9000005    2    3    3    0    0 -0.32209451585E+02  0.27076183621E+02  0.45902437442E+02  0.62637767379E+02  0.67740422453E+01 0.  0.
         22    1    3    3    0    0  0.32209451585E+02 -0.27076183621E+02  0.78477285052E+02  0.89046351750E+02  0.00000000000E+00 0. -1.
         22    1    4    4    0    0 -0.98738905982E+01  0.12309225773E+02  0.18697598551E+02  0.24466527057E+02  0.00000000000E+00 0. -1.
         22    1    4    4    0    0 -0.22335560986E+02  0.14766957848E+02  0.27204838891E+02  0.38171240322E+02  0.00000000000E+00 0. -1.
<mgrwt>
<rscale>  0 0.86820255E+02</rscale>
<asrwt>0</asrwt>
<pdfrwt beam="1">  1        1 0.21235679E-01 0.86820255E+02</pdfrwt>
<pdfrwt beam="2">  1       -1 0.21003383E-02 0.86820255E+02</pdfrwt>
<totfact> 0.12601385E+05</totfact>
</mgrwt>
</event>
<event>
 7    1  0.3565607E-009  0.9192980E+02  0.7818608E-02  0.1298245E+00
         -1   -1    0    0    0  501 -0.00000000000E+00  0.00000000000E+00  0.30464188236E+02  0.30464188653E+02  0.50400000000E-02 0.  1.
          1   -1    0    0  501    0  0.00000000000E+00 -0.00000000000E+00 -0.69352640387E+02  0.69352640570E+02  0.50400000000E-02 0. -1.
         23    2    1    2    0    0  0.00000000000E+00  0.35527136788E-14 -0.38888452150E+02  0.99816829223E+02  0.91929797593E+02 0.  0.
    9000005    2    3    3    0    0 -0.40092245918E+02 -0.19443117546E+02 -0.21509148672E+02  0.51989397847E+02  0.15963427241E+02 0.  0.
         22    1    3    3    0    0  0.40092245918E+02  0.19443117546E+02 -0.17379303479E+02  0.47827431376E+02  0.00000000000E+00 0.  1.
         22    1    4    4    0    0 -0.91825727023E+01  0.20665097311E+01 -0.21814277117E+01  0.96617146907E+01  0.00000000000E+00 0. -1.
         22    1    4    4    0    0 -0.30909673216E+02 -0.21509627277E+02 -0.19327720960E+02  0.42327683156E+02  0.00000000000E+00 0. -1.
<mgrwt>
<rscale>  0 0.91929798E+02</rscale>
<asrwt>0</asrwt>
<pdfrwt beam="2">  1        1 0.10669637E-01 0.91929798E+02</pdfrwt>
<pdfrwt beam="1">  1       -1 0.46867982E-02 0.91929798E+02</pdfrwt>
<totfact> 0.96311942E+04</totfact>
</mgrwt>
</event>
<event>
 7    1  0.3565607E-009  0.9111763E+02  0.7818608E-02  0.1300168E+00
          1   -1    0    0  501    0  0.00000000000E+00  0.00000000000E+00  0.18371048946E+04  0.18371048946E+04  0.50400000000E-02 0. -1.
         -1   -1    0    0    0  501 -0.00000000000E+00 -0.00000000000E+00 -0.11298187038E+01  0.11298299452E+01  0.50400000000E-02 0.  1.
         23    2    1    2    0    0  0.88817841970E-15  0.00000000000E+00  0.18359750759E+04  0.18382347246E+04  0.91117634064E+02 0.  0.
    9000005    2    3    3    0    0  0.48525220822E+01  0.15111980496E+02  0.17794121389E+04  0.17794870882E+04  0.38494676204E+01 0.  0.
         22    1    3    3    0    0 -0.48525220822E+01 -0.15111980496E+02  0.56562937068E+02  0.58747636334E+02  0.00000000000E+00 0.  1.
         22    1    4    4    0    0  0.50962195666E+01  0.14879104752E+02  0.17680485083E+04  0.17681184596E+04  0.00000000000E+00 0. -1.
         22    1    4    4    0    0 -0.24369748436E+00  0.23287574365E+00  0.11363630520E+02  0.11368628684E+02  0.00000000000E+00 0. -1.
<mgrwt>
<rscale>  0 0.91117634E+02</rscale>
<asrwt>0</asrwt>
<pdfrwt beam="1">  1        1 0.28263312E+00 0.91117634E+02</pdfrwt>
<pdfrwt beam="2">  1       -1 0.17381815E-03 0.91117634E+02</pdfrwt>
<totfact> 0.89832051E+04</totfact>
</mgrwt>
</event>
<event>
 7    1  0.3565607E-009  0.9057684E+02  0.7818608E-02  0.1301461E+00
          1   -1    0    0  501    0  0.00000000000E+00  0.00000000000E+00  0.36971952111E+02  0.36971952455E+02  0.50400000000E-02 0. -1.
         -1   -1    0    0    0  501 -0.00000000000E+00 -0.00000000000E+00 -0.55475598519E+02  0.55475598748E+02  0.50400000000E-02 0.  1.
         23    2    1    2    0    0 -0.22204460493E-15  0.00000000000E+00 -0.18503646408E+02  0.92447551203E+02  0.90576844685E+02 0.  0.
    9000005    2    3    3    0    0 -0.19103233190E+01  0.30415757667E+02 -0.42167773863E+02  0.53863116805E+02  0.13940823137E+02 0.  0.
         22    1    3    3    0    0  0.19103233190E+01 -0.30415757667E+02  0.23664127455E+02  0.38584434398E+02  0.00000000000E+00 0. -1.
         22    1    4    4    0    0  0.17832555693E+01  0.29385116162E+02 -0.35005800368E+02  0.45739163872E+02  0.00000000000E+00 0.  1.
         22    1    4    4    0    0 -0.36935788883E+01  0.10306415046E+01 -0.71619734951E+01  0.81239529331E+01  0.00000000000E+00 0.  1.
<mgrwt>
<rscale>  0 0.90576845E+02</rscale>
<asrwt>0</asrwt>
<pdfrwt beam="1">  1        1 0.56879927E-02 0.90576845E+02</pdfrwt>
<pdfrwt beam="2">  1       -1 0.85347075E-02 0.90576845E+02</pdfrwt>
<totfact> 0.91270982E+04</totfact>
</mgrwt>
</event>
<event>
 7    1  0.3565607E-009  0.8961222E+02  0.7818608E-02  0.1303793E+00
          1   -1    0    0  501    0  0.00000000000E+00  0.00000000000E+00  0.10572289611E+03  0.10572289623E+03  0.50400000000E-02 0. -1.
         -1   -1    0    0    0  501 -0.00000000000E+00 -0.00000000000E+00 -0.18989145558E+02  0.18989146227E+02  0.50400000000E-02 0.  1.
         23    2    1    2    0    0  0.00000000000E+00  0.00000000000E+00  0.86733750549E+02  0.12471204245E+03  0.89612220420E+02 0.  0.
    9000005    2    3    3    0    0  0.32786357216E+02 -0.10544800127E+02  0.82324991396E+02  0.89990648667E+02  0.11609246737E+02 0.  0.
         22    1    3    3    0    0 -0.32786357216E+02  0.10544800127E+02  0.44087591525E+01  0.34721393787E+02  0.00000000000E+00 0.  1.
         22    1    4    4    0    0  0.17501060779E+02 -0.11500080439E+02  0.44428983987E+02  0.49116937981E+02  0.00000000000E+00 0. -1.
         22    1    4    4    0    0  0.15285296438E+02  0.95528031240E+00  0.37896007409E+02  0.40873710686E+02  0.00000000000E+00 0. -1.
<mgrwt>
<rscale>  0 0.89612220E+02</rscale>
<asrwt>0</asrwt>
<pdfrwt beam="1">  1        1 0.16265061E-01 0.89612220E+02</pdfrwt>
<pdfrwt beam="2">  1       -1 0.29214070E-02 0.89612220E+02</pdfrwt>
<totfact> 0.11050542E+05</totfact>
</mgrwt>
</event>
<event>
 7    1  0.3565607E-009  0.8968408E+02  0.7818608E-02  0.1303619E+00
          1   -1    0    0  501    0  0.00000000000E+00  0.00000000000E+00  0.72842045996E+02  0.72842046170E+02  0.50400000000E-02 0. -1.
         -1   -1    0    0    0  501 -0.00000000000E+00 -0.00000000000E+00 -0.27605051163E+02  0.27605051623E+02  0.50400000000E-02 0.  1.
         23    2    1    2    0    0  0.00000000000E+00  0.00000000000E+00  0.45236994833E+02  0.10044709779E+03  0.89684077480E+02 0.  0.
    9000005    2    3    3    0    0 -0.62367272752E+01 -0.42941517428E+02  0.28615635260E+02  0.53980547671E+02  0.14566202641E+02 0.  0.
         22    1    3    3    0    0  0.62367272752E+01  0.42941517428E+02  0.16621359573E+02  0.46466550122E+02  0.00000000000E+00 0. -1.
         22    1    4    4    0    0 -0.50667488752E-01 -0.28353325625E+01  0.79509566377E+01  0.84415276691E+01  0.00000000000E+00 0. -1.
         22    1    4    4    0    0 -0.61860597865E+01 -0.40106184866E+02  0.20664678622E+02  0.45539020002E+02  0.00000000000E+00 0. -1.
<mgrwt>
<rscale>  0 0.89684077E+02</rscale>
<asrwt>0</asrwt>
<pdfrwt beam="1">  1        1 0.11206469E-01 0.89684077E+02</pdfrwt>
<pdfrwt beam="2">  1       -1 0.42469311E-02 0.89684077E+02</pdfrwt>
<totfact> 0.10388509E+05</totfact>
</mgrwt>
</event>
<event>
 7    1  0.3565607E-009  0.9061643E+02  0.7818608E-02  0.1301366E+00
          1   -1    0    0  501    0  0.00000000000E+00  0.00000000000E+00  0.11207657289E+04  0.11207657290E+04  0.50400000000E-02 0. -1.
         -1   -1    0    0    0  501 -0.00000000000E+00 -0.00000000000E+00 -0.18316321700E+01  0.18316391041E+01  0.50400000000E-02 0.  1.
         23    2    1    2    0    0  0.44408920985E-15  0.00000000000E+00  0.11189340968E+04  0.11225973681E+04  0.90616432563E+02 0.  0.
    9000005    2    3    3    0    0  0.35785729111E+01  0.19075414230E+02  0.10665889374E+04  0.10667700152E+04  0.31026506061E+01 0.  0.
         22    1    3    3    0    0 -0.35785729111E+01 -0.19075414230E+02  0.52345159421E+02  0.55827352856E+02  0.00000000000E+00 0.  1.
         22    1    4    4    0    0  0.32254882480E+00  0.10125979178E+02  0.54763334107E+03  0.54772704493E+03  0.00000000000E+00 0. -1.
         22    1    4    4    0    0  0.32560240863E+01  0.89494350520E+01  0.51895559628E+03  0.51904297028E+03  0.00000000000E+00 0. -1.
<mgrwt>
<rscale>  0 0.90616433E+02</rscale>
<asrwt>0</asrwt>
<pdfrwt beam="1">  1        1 0.17242506E+00 0.90616433E+02</pdfrwt>
<pdfrwt beam="2">  1       -1 0.28179081E-03 0.90616433E+02</pdfrwt>
<totfact> 0.13323005E+05</totfact>
</mgrwt>
</event>
<event>
 7    1  0.3565607E-009  0.9195650E+02  0.7818608E-02  0.1298182E+00
         -1   -1    0    0    0  501 -0.00000000000E+00  0.00000000000E+00  0.13610660502E+03  0.13610660511E+03  0.50400000000E-02 0.  1.
          1   -1    0    0  501    0  0.00000000000E+00 -0.00000000000E+00 -0.15531938987E+02  0.15531939805E+02  0.50400000000E-02 0. -1.
         23    2    1    2    0    0  0.00000000000E+00  0.35527136788E-14  0.12057466603E+03  0.15163854492E+03  0.91956501760E+02 0.  0.
    9000005    2    3    3    0    0 -0.12328760165E+02 -0.26891977985E+02  0.11733171795E+03  0.12187794144E+03  0.14571333677E+02 0.  0.
         22    1    3    3    0    0  0.12328760165E+02  0.26891977985E+02  0.32429480827E+01  0.29760603479E+02  0.00000000000E+00 0. -1.
         22    1    4    4    0    0 -0.32025926812E+01 -0.16063856658E+02  0.85256996752E+02  0.86816240334E+02  0.00000000000E+00 0. -1.
         22    1    4    4    0    0 -0.91261674841E+01 -0.10828121328E+02  0.32074721200E+02  0.35061701106E+02  0.00000000000E+00 0. -1.
<mgrwt>
<rscale>  0 0.91956502E+02</rscale>
<asrwt>0</asrwt>
<pdfrwt beam="2">  1        1 0.23895291E-02 0.91956502E+02</pdfrwt>
<pdfrwt beam="1">  1       -1 0.20939478E-01 0.91956502E+02</pdfrwt>
<totfact> 0.74787553E+04</totfact>
</mgrwt>
</event>
<event>
 7    1  0.4298387E-009  0.9070124E+02  0.7818608E-02  0.1301162E+00
          1   -1    0    0  501    0  0.00000000000E+00  0.00000000000E+00  0.42827355401E+02  0.42827355698E+02  0.50400000000E-02 0. -1.
         -1   -1    0    0    0  501 -0.00000000000E+00 -0.00000000000E+00 -0.48022550365E+02  0.48022550630E+02  0.50400000000E-02 0.  1.
         23    2    1    2    0    0  0.35527136788E-14  0.00000000000E+00 -0.51951949639E+01  0.90849906328E+02  0.90701242709E+02 0.  0.
    9000005    2    3    3    0    0  0.13704118683E+02  0.99384937431E+01 -0.43639299906E+02  0.48843648085E+02  0.13954817632E+02 0.  0.
         22    1    3    3    0    0 -0.13704118683E+02 -0.99384937431E+01  0.38444104942E+02  0.42006258243E+02  0.00000000000E+00 0. -1.
         22    1    4    4    0    0  0.14299449194E+02  0.10664215232E+02 -0.28150436655E+02  0.33326368203E+02  0.00000000000E+00 0.  1.
         22    1    4    4    0    0 -0.59533051116E+00 -0.72572148848E+00 -0.15488863252E+02  0.15517279881E+02  0.00000000000E+00 0.  1.
<mgrwt>
<rscale>  0 0.90701243E+02</rscale>
<asrwt>0</asrwt>
<pdfrwt beam="1">  1        1 0.65888239E-02 0.90701243E+02</pdfrwt>
<pdfrwt beam="2">  1       -1 0.73880847E-02 0.90701243E+02</pdfrwt>
<totfact> 0.92963741E+04</totfact>
</mgrwt>
</event>
<event>
 7    1  0.3565607E-009  0.9618775E+02  0.7818608E-02  0.1288523E+00
          1   -1    0    0  501    0  0.00000000000E+00  0.00000000000E+00  0.10486243780E+04  0.10486243780E+04  0.50400000000E-02 0. -1.
         -1   -1    0    0    0  501 -0.00000000000E+00 -0.00000000000E+00 -0.22057640036E+01  0.22057697616E+01  0.50400000000E-02 0.  1.
         23    2    1    2    0    0  0.00000000000E+00  0.00000000000E+00  0.10464186140E+04  0.10508301477E+04  0.96187752608E+02 0.  0.
    9000005    2    3    3    0    0 -0.74933591287E+01  0.16820236016E+02  0.10073106559E+04  0.10076039617E+04  0.15871846126E+02 0.  0.
         22    1    3    3    0    0  0.74933591287E+01 -0.16820236016E+02  0.39107958103E+02  0.43226186017E+02  0.00000000000E+00 0.  1.
         22    1    4    4    0    0  0.35033936316E+01 -0.72271937834E+00  0.13195771448E+03  0.13200619115E+03  0.00000000000E+00 0. -1.
         22    1    4    4    0    0 -0.10996752760E+02  0.17542955394E+02  0.87535294138E+03  0.87559777058E+03  0.00000000000E+00 0. -1.
<mgrwt>
<rscale>  0 0.96187753E+02</rscale>
<asrwt>0</asrwt>
<pdfrwt beam="1">  1        1 0.16132671E+00 0.96187753E+02</pdfrwt>
<pdfrwt beam="2">  1       -1 0.33934900E-03 0.96187753E+02</pdfrwt>
<totfact> 0.11642401E+05</totfact>
</mgrwt>
</event>
<event>
 7    1  0.3565607E-009  0.9046221E+02  0.7818608E-02  0.1301736E+00
          1   -1    0    0  501    0  0.00000000000E+00  0.00000000000E+00  0.24132058405E+03  0.24132058410E+03  0.50400000000E-02 0. -1.
         -1   -1    0    0    0  501 -0.00000000000E+00 -0.00000000000E+00 -0.84777385822E+01  0.84777400804E+01  0.50400000000E-02 0.  1.
         23    2    1    2    0    0  0.00000000000E+00  0.00000000000E+00  0.23284284547E+03  0.24979832418E+03  0.90462213543E+02 0.  0.
    9000005    2    3    3    0    0 -0.35135216601E+02 -0.26565560726E+02  0.10974543725E+03  0.11905741867E+03  0.13798386961E+02 0.  0.
         22    1    3    3    0    0  0.35135216601E+02  0.26565560726E+02  0.12309740822E+03  0.13074090551E+03  0.00000000000E+00 0. -1.
         22    1    4    4    0    0 -0.20058069406E+02 -0.15172854487E+02  0.44335051011E+02  0.50971937473E+02  0.00000000000E+00 0.  1.
         22    1    4    4    0    0 -0.15077147195E+02 -0.11392706239E+02  0.65410386236E+02  0.68085481202E+02  0.00000000000E+00 0.  1.
<mgrwt>
<rscale>  0 0.90462214E+02</rscale>
<asrwt>0</asrwt>
<pdfrwt beam="1">  1        1 0.37126238E-01 0.90462214E+02</pdfrwt>
<pdfrwt beam="2">  1       -1 0.13042678E-02 0.90462214E+02</pdfrwt>
<totfact> 0.12542960E+05</totfact>
</mgrwt>
</event>
<event>
 7    1  0.3565607E-009  0.9008150E+02  0.7818608E-02  0.1302654E+00
          1   -1    0    0  501    0  0.00000000000E+00  0.00000000000E+00  0.11190164071E+04  0.11190164071E+04  0.50400000000E-02 0. -1.
         -1   -1    0    0    0  501 -0.00000000000E+00 -0.00000000000E+00 -0.18129003988E+01  0.18129074045E+01  0.50400000000E-02 0.  1.
         23    2    1    2    0    0  0.00000000000E+00  0.00000000000E+00  0.11172035067E+04  0.11208293145E+04  0.90081501388E+02 0.  0.
    9000005    2    3    3    0    0  0.17042093154E+02  0.17060198038E+02  0.10307080572E+04  0.10310354056E+04  0.96656660352E+01 0.  0.
         22    1    3    3    0    0 -0.17042093154E+02 -0.17060198038E+02  0.86495449465E+02  0.89793908893E+02  0.00000000000E+00 0.  1.
         22    1    4    4    0    0  0.76078913084E+01  0.12252029804E+02  0.72646420325E+03  0.72660734297E+03  0.00000000000E+00 0.  1.
         22    1    4    4    0    0  0.94342018455E+01  0.48081682340E+01  0.30424385394E+03  0.30442806261E+03  0.00000000000E+00 0.  1.
<mgrwt>
<rscale>  0 0.90081501E+02</rscale>
<asrwt>0</asrwt>
<pdfrwt beam="1">  1        1 0.17215633E+00 0.90081501E+02</pdfrwt>
<pdfrwt beam="2">  1       -1 0.27890836E-03 0.90081501E+02</pdfrwt>
<totfact> 0.13541220E+05</totfact>
</mgrwt>
</event>
<event>
 7    1  0.3565607E-009  0.9143254E+02  0.7818608E-02  0.1299419E+00
         -1   -1    0    0    0  501 -0.00000000000E+00  0.00000000000E+00  0.47526184880E+01  0.47526211603E+01  0.50400000000E-02 0.  1.
          1   -1    0    0  501    0  0.00000000000E+00 -0.00000000000E+00 -0.43975271063E+03  0.43975271066E+03  0.50400000000E-02 0. -1.
         23    2    1    2    0    0  0.00000000000E+00  0.00000000000E+00 -0.43500009214E+03  0.44450533182E+03  0.91432542632E+02 0.  0.
    9000005    2    3    3    0    0  0.33458958495E+02 -0.22668450352E+02 -0.31515398579E+03  0.31802825977E+03  0.13659381824E+02 0.  0.
         22    1    3    3    0    0 -0.33458958495E+02  0.22668450352E+02 -0.11984610635E+03  0.12647707204E+03  0.00000000000E+00 0.  1.
         22    1    4    4    0    0  0.33698329705E+02 -0.21551144222E+02 -0.31335034260E+03  0.31589312504E+03  0.00000000000E+00 0.  1.
         22    1    4    4    0    0 -0.23937121038E+00 -0.11173061307E+01 -0.18036431858E+01  0.21351347283E+01  0.00000000000E+00 0.  1.
<mgrwt>
<rscale>  0 0.91432543E+02</rscale>
<asrwt>0</asrwt>
<pdfrwt beam="2">  1        1 0.67654231E-01 0.91432543E+02</pdfrwt>
<pdfrwt beam="1">  1       -1 0.73117263E-03 0.91432543E+02</pdfrwt>
<totfact> 0.13588512E+05</totfact>
</mgrwt>
</event>
<event>
 7    1  0.3565607E-009  0.8957536E+02  0.7818608E-02  0.1303883E+00
         -1   -1    0    0    0  501 -0.00000000000E+00  0.00000000000E+00  0.21653744742E+03  0.21653744748E+03  0.50400000000E-02 0.  1.
          1   -1    0    0  501    0  0.00000000000E+00 -0.00000000000E+00 -0.92636914675E+01  0.92636928386E+01  0.50400000000E-02 0. -1.
         23    2    1    2    0    0  0.17763568394E-14  0.00000000000E+00  0.20727375595E+03  0.22580114031E+03  0.89575359680E+02 0.  0.
    9000005    2    3    3    0    0 -0.10177899532E+02  0.41891085835E+02  0.77936281930E+02  0.89468330994E+02  0.84891400309E+01 0.  0.
         22    1    3    3    0    0  0.10177899532E+02 -0.41891085835E+02  0.12933747402E+03  0.13633280932E+03  0.00000000000E+00 0. -1.
         22    1    4    4    0    0  0.13084769621E+01  0.50818131762E+01  0.11755850206E+02  0.12873886406E+02  0.00000000000E+00 0.  1.
         22    1    4    4    0    0 -0.11486376494E+02  0.36809272659E+02  0.66180431724E+02  0.76594444589E+02  0.00000000000E+00 0.  1.
<mgrwt>
<rscale>  0 0.89575360E+02</rscale>
<asrwt>0</asrwt>
<pdfrwt beam="2">  1        1 0.14251834E-02 0.89575360E+02</pdfrwt>
<pdfrwt beam="1">  1       -1 0.33313454E-01 0.89575360E+02</pdfrwt>
<totfact> 0.71022304E+04</totfact>
</mgrwt>
</event>
<event>
 7    1  0.3565607E-009  0.9076063E+02  0.7818608E-02  0.1301020E+00
         -1   -1    0    0    0  501 -0.00000000000E+00  0.00000000000E+00  0.17884787544E+03  0.17884787551E+03  0.50400000000E-02 0.  1.
          1   -1    0    0  501    0  0.00000000000E+00 -0.00000000000E+00 -0.11514663315E+02  0.11514664418E+02  0.50400000000E-02 0. -1.
         23    2    1    2    0    0  0.35527136788E-14  0.00000000000E+00  0.16733321213E+03  0.19036253993E+03  0.90760634242E+02 0.  0.
    9000005    2    3    3    0    0  0.17219502090E+02  0.30271973489E+02  0.14306743493E+03  0.14791573117E+03  0.14066590126E+02 0.  0.
         22    1    3    3    0    0 -0.17219502090E+02 -0.30271973489E+02  0.24265777193E+02  0.42446808760E+02  0.00000000000E+00 0. -1.
         22    1    4    4    0    0  0.10017277867E+02  0.11402621911E+02  0.37894645440E+02  0.40821192968E+02  0.00000000000E+00 0. -1.
         22    1    4    4    0    0  0.72022242235E+01  0.18869351578E+02  0.10517278949E+03  0.10709453820E+03  0.00000000000E+00 0. -1.
<mgrwt>
<rscale>  0 0.90760634E+02</rscale>
<asrwt>0</asrwt>
<pdfrwt beam="2">  1        1 0.17714869E-02 0.90760634E+02</pdfrwt>
<pdfrwt beam="1">  1       -1 0.27515056E-01 0.90760634E+02</pdfrwt>
<totfact> 0.72447901E+04</totfact>
</mgrwt>
</event>
<event>
 7    1  0.3565607E-009  0.8940029E+02  0.7818608E-02  0.1304311E+00
          1   -1    0    0  501    0  0.00000000000E+00  0.00000000000E+00  0.15457122866E+03  0.15457122874E+03  0.50400000000E-02 0. -1.
         -1   -1    0    0    0  501 -0.00000000000E+00 -0.00000000000E+00 -0.12926744072E+02  0.12926745054E+02  0.50400000000E-02 0.  1.
         23    2    1    2    0    0  0.00000000000E+00  0.00000000000E+00  0.14164448459E+03  0.16749797380E+03  0.89400286418E+02 0.  0.
    9000005    2    3    3    0    0  0.53693154782E+01  0.43132969775E+02  0.63999963056E+02  0.78515085811E+02  0.13391818337E+02 0.  0.
         22    1    3    3    0    0 -0.53693154782E+01 -0.43132969775E+02  0.77644521532E+02  0.88982887985E+02  0.00000000000E+00 0.  1.
         22    1    4    4    0    0  0.38380695955E+01  0.51568316093E+01  0.42669033148E+01  0.77155786798E+01  0.00000000000E+00 0. -1.
         22    1    4    4    0    0  0.15312458827E+01  0.37976138166E+02  0.59733059742E+02  0.70799507131E+02  0.00000000000E+00 0. -1.
<mgrwt>
<rscale>  0 0.89400286E+02</rscale>
<asrwt>0</asrwt>
<pdfrwt beam="1">  1        1 0.23780191E-01 0.89400286E+02</pdfrwt>
<pdfrwt beam="2">  1       -1 0.19887298E-02 0.89400286E+02</pdfrwt>
<totfact> 0.11888646E+05</totfact>
</mgrwt>
</event>
<event>
 7    1  0.3565607E-009  0.9077227E+02  0.7818608E-02  0.1300992E+00
          1   -1    0    0  501    0  0.00000000000E+00  0.00000000000E+00  0.64283984143E+03  0.64283984145E+03  0.50400000000E-02 0. -1.
         -1   -1    0    0    0  501 -0.00000000000E+00 -0.00000000000E+00 -0.32043748457E+01  0.32043788093E+01  0.50400000000E-02 0.  1.
         23    2    1    2    0    0  0.00000000000E+00  0.00000000000E+00  0.63963546659E+03  0.64604422026E+03  0.90772266787E+02 0.  0.
    9000005    2    3    3    0    0 -0.11240984813E+02  0.40932182907E+01  0.63139383734E+03  0.63151705164E+03  0.35347568941E+01 0.  0.
         22    1    3    3    0    0  0.11240984813E+02 -0.40932182907E+01  0.82416292509E+01  0.14527168625E+02  0.00000000000E+00 0.  1.
         22    1    4    4    0    0 -0.86618758570E+01  0.14556122478E+01  0.44974215793E+03  0.44982791767E+03  0.00000000000E+00 0. -1.
         22    1    4    4    0    0 -0.25791089565E+01  0.26376060429E+01  0.18165167941E+03  0.18168913396E+03  0.00000000000E+00 0. -1.
<mgrwt>
<rscale>  0 0.90772267E+02</rscale>
<asrwt>0</asrwt>
<pdfrwt beam="1">  1        1 0.98898458E-01 0.90772267E+02</pdfrwt>
<pdfrwt beam="2">  1       -1 0.49298095E-03 0.90772267E+02</pdfrwt>
<totfact> 0.14371721E+05</totfact>
</mgrwt>
</event>
<event>
 7    1  0.3565607E-009  0.9380254E+02  0.7818608E-02  0.1293896E+00
          1   -1    0    0  501    0  0.00000000000E+00  0.00000000000E+00  0.55391401608E+02  0.55391401838E+02  0.50400000000E-02 0. -1.
         -1   -1    0    0    0  501 -0.00000000000E+00 -0.00000000000E+00 -0.39712461971E+02  0.39712462291E+02  0.50400000000E-02 0.  1.
         23    2    1    2    0    0  0.00000000000E+00  0.00000000000E+00  0.15678939637E+02  0.95103864129E+02  0.93802536341E+02 0.  0.
    9000005    2    3    3    0    0 -0.40953706204E+02 -0.21105681651E+02 -0.12715269539E+00  0.46395667646E+02  0.54668051701E+01 0.  0.
         22    1    3    3    0    0  0.40953706204E+02  0.21105681651E+02  0.15806092332E+02  0.48708196483E+02  0.00000000000E+00 0. -1.
         22    1    4    4    0    0 -0.39150567035E+02 -0.19722872916E+02  0.10209765013E+01  0.43849754939E+02  0.00000000000E+00 0.  1.
         22    1    4    4    0    0 -0.18031391687E+01 -0.13828087351E+01 -0.11481291967E+01  0.25459127071E+01  0.00000000000E+00 0.  1.
<mgrwt>
<rscale>  0 0.93802536E+02</rscale>
<asrwt>0</asrwt>
<pdfrwt beam="1">  1        1 0.85217541E-02 0.93802536E+02</pdfrwt>
<pdfrwt beam="2">  1       -1 0.61096096E-02 0.93802536E+02</pdfrwt>
<totfact> 0.87962032E+04</totfact>
</mgrwt>
</event>
<event>
 7    1  0.3565607E-009  0.9129661E+02  0.7818608E-02  0.1299742E+00
          1   -1    0    0  501    0  0.00000000000E+00  0.00000000000E+00  0.51896573981E+02  0.51896574226E+02  0.50400000000E-02 0. -1.
         -1   -1    0    0    0  501 -0.00000000000E+00 -0.00000000000E+00 -0.40152321857E+02  0.40152322173E+02  0.50400000000E-02 0.  1.
         23    2    1    2    0    0  0.00000000000E+00  0.00000000000E+00  0.11744252124E+02  0.92048896398E+02  0.91296614780E+02 0.  0.
    9000005    2    3    3    0    0 -0.37636967020E+02 -0.20745708348E+02  0.17416616351E+02  0.48700292992E+02  0.14881341039E+02 0.  0.
         22    1    3    3    0    0  0.37636967020E+02  0.20745708348E+02 -0.56723642264E+01  0.43348603406E+02  0.00000000000E+00 0.  1.
         22    1    4    4    0    0 -0.16891822715E+02 -0.15737422895E+02  0.38328142369E+01  0.23402790837E+02  0.00000000000E+00 0. -1.
         22    1    4    4    0    0 -0.20745144306E+02 -0.50082854533E+01  0.13583802114E+02  0.25297502155E+02  0.00000000000E+00 0. -1.
<mgrwt>
<rscale>  0 0.91296615E+02</rscale>
<asrwt>0</asrwt>
<pdfrwt beam="1">  1        1 0.79840883E-02 0.91296615E+02</pdfrwt>
<pdfrwt beam="2">  1       -1 0.61772804E-02 0.91296615E+02</pdfrwt>
<totfact> 0.93944197E+04</totfact>
</mgrwt>
</event>
<event>
 7    1  0.3565607E-009  0.8869456E+02  0.7818608E-02  0.1306044E+00
         -1   -1    0    0    0  501 -0.00000000000E+00  0.00000000000E+00  0.74616381886E+02  0.74616382056E+02  0.50400000000E-02 0.  1.
          1   -1    0    0  501    0  0.00000000000E+00 -0.00000000000E+00 -0.26357229753E+02  0.26357230234E+02  0.50400000000E-02 0. -1.
         23    2    1    2    0    0 -0.35527136788E-14  0.00000000000E+00  0.48259152134E+02  0.10097361229E+03  0.88694557975E+02 0.  0.
    9000005    2    3    3    0    0 -0.30050436450E+02 -0.29129787729E+02  0.40740532037E+02  0.58451818912E+02  0.22914884701E+01 0.  0.
         22    1    3    3    0    0  0.30050436450E+02  0.29129787729E+02  0.75186200961E+01  0.42521793379E+02  0.00000000000E+00 0. -1.
         22    1    4    4    0    0 -0.88669270685E+01 -0.10033940511E+02  0.13397734065E+02  0.18942059970E+02  0.00000000000E+00 0. -1.
         22    1    4    4    0    0 -0.21183509382E+02 -0.19095847218E+02  0.27342797972E+02  0.39509758942E+02  0.00000000000E+00 0. -1.
<mgrwt>
<rscale>  0 0.88694558E+02</rscale>
<asrwt>0</asrwt>
<pdfrwt beam="2">  1        1 0.40549586E-02 0.88694558E+02</pdfrwt>
<pdfrwt beam="1">  1       -1 0.11479443E-01 0.88694558E+02</pdfrwt>
<totfact> 0.91890171E+04</totfact>
</mgrwt>
</event>
<event>
 7    1  0.3565607E-009  0.9012398E+02  0.7818608E-02  0.1302552E+00
          1   -1    0    0  501    0  0.00000000000E+00  0.00000000000E+00  0.12362673185E+02  0.12362674212E+02  0.50400000000E-02 0. -1.
         -1   -1    0    0    0  501 -0.00000000000E+00 -0.00000000000E+00 -0.16425110954E+03  0.16425110961E+03  0.50400000000E-02 0.  1.
         23    2    1    2    0    0  0.00000000000E+00  0.00000000000E+00 -0.15188843635E+03  0.17661378383E+03  0.90123978718E+02 0.  0.
    9000005    2    3    3    0    0 -0.38574574906E+02  0.44195519654E+01 -0.12035159008E+03  0.12659275883E+03  0.58044021994E+01 0.  0.
         22    1    3    3    0    0  0.38574574906E+02 -0.44195519654E+01 -0.31536846269E+02  0.50021024993E+02  0.00000000000E+00 0. -1.
         22    1    4    4    0    0 -0.25329788977E+02  0.47320055467E+01 -0.85897341159E+02  0.89679112977E+02  0.00000000000E+00 0. -1.
         22    1    4    4    0    0 -0.13244785928E+02 -0.31245358128E+00 -0.34454248924E+02  0.36913645857E+02  0.00000000000E+00 0. -1.
<mgrwt>
<rscale>  0 0.90123979E+02</rscale>
<asrwt>0</asrwt>
<pdfrwt beam="1">  1        1 0.19019499E-02 0.90123979E+02</pdfrwt>
<pdfrwt beam="2">  1       -1 0.25269400E-01 0.90123979E+02</pdfrwt>
<totfact> 0.75408748E+04</totfact>
</mgrwt>
</event>
<event>
 7    1  0.3565607E-009  0.9033175E+02  0.7818608E-02  0.1302050E+00
          1   -1    0    0  501    0  0.00000000000E+00  0.00000000000E+00  0.11719783800E+03  0.11719783811E+03  0.50400000000E-02 0. -1.
         -1   -1    0    0    0  501 -0.00000000000E+00 -0.00000000000E+00 -0.17406090424E+02  0.17406091154E+02  0.50400000000E-02 0.  1.
         23    2    1    2    0    0  0.00000000000E+00  0.00000000000E+00  0.99791747577E+02  0.13460392926E+03  0.90331749063E+02 0.  0.
    9000005    2    3    3    0    0  0.38464934289E+02  0.14257353054E+02  0.27734780791E+02  0.51688130116E+02  0.14819630340E+02 0.  0.
         22    1    3    3    0    0 -0.38464934289E+02 -0.14257353054E+02  0.72056966787E+02  0.82915799148E+02  0.00000000000E+00 0. -1.
         22    1    4    4    0    0  0.37462155601E+02  0.15313164746E+02  0.28976110288E+02  0.49774703256E+02  0.00000000000E+00 0.  1.
         22    1    4    4    0    0  0.10027786880E+01 -0.10558116926E+01 -0.12413294971E+01  0.19134268598E+01  0.00000000000E+00 0.  1.
<mgrwt>
<rscale>  0 0.90331749E+02</rscale>
<asrwt>0</asrwt>
<pdfrwt beam="1">  1        1 0.18030436E-01 0.90331749E+02</pdfrwt>
<pdfrwt beam="2">  1       -1 0.26778602E-02 0.90331749E+02</pdfrwt>
<totfact> 0.11004139E+05</totfact>
</mgrwt>
</event>
<event>
 7    1  0.3565607E-009  0.9167255E+02  0.7818608E-02  0.1298851E+00
          1   -1    0    0  501    0  0.00000000000E+00  0.00000000000E+00  0.24689936920E+03  0.24689936925E+03  0.50400000000E-02 0. -1.
         -1   -1    0    0    0  501 -0.00000000000E+00 -0.00000000000E+00 -0.85093931899E+01  0.85093946825E+01  0.50400000000E-02 0.  1.
         23    2    1    2    0    0  0.00000000000E+00  0.00000000000E+00  0.23838997601E+03  0.25540876393E+03  0.91672547865E+02 0.  0.
    9000005    2    3    3    0    0  0.15629840116E+02 -0.38528972808E+02  0.17192542978E+03  0.17701036119E+03  0.67484008970E+01 0.  0.
         22    1    3    3    0    0 -0.15629840116E+02  0.38528972808E+02  0.66464546226E+02  0.78398402743E+02  0.00000000000E+00 0. -1.
         22    1    4    4    0    0  0.15101516592E+01 -0.10238614140E+02  0.36169235160E+02  0.37620783479E+02  0.00000000000E+00 0. -1.
         22    1    4    4    0    0  0.14119688456E+02 -0.28290358668E+02  0.13575619462E+03  0.13938957771E+03  0.00000000000E+00 0. -1.
<mgrwt>
<rscale>  0 0.91672548E+02</rscale>
<asrwt>0</asrwt>
<pdfrwt beam="1">  1        1 0.37984519E-01 0.91672548E+02</pdfrwt>
<pdfrwt beam="2">  1       -1 0.13091375E-02 0.91672548E+02</pdfrwt>
<totfact> 0.12159348E+05</totfact>
</mgrwt>
</event>
<event>
 7    1  0.3565607E-009  0.1150157E+03  0.7818608E-02  0.1251554E+00
         -1   -1    0    0    0  501 -0.00000000000E+00  0.00000000000E+00  0.82843998051E+01  0.82844013382E+01  0.50400000000E-02 0.  1.
          1   -1    0    0  501    0  0.00000000000E+00 -0.00000000000E+00 -0.39920242247E+03  0.39920242250E+03  0.50400000000E-02 0. -1.
         23    2    1    2    0    0  0.00000000000E+00  0.00000000000E+00 -0.39091802266E+03  0.40748682384E+03  0.11501569962E+03 0.  0.
    9000005    2    3    3    0    0 -0.49813302541E+02  0.31152597381E+01 -0.99185410748E+02  0.11151556373E+03  0.10339501737E+02 0.  0.
         22    1    3    3    0    0  0.49813302541E+02 -0.31152597381E+01 -0.29173261192E+03  0.29597126011E+03  0.00000000000E+00 0. -1.
         22    1    4    4    0    0 -0.59806998921E+01 -0.30368334929E+01 -0.12876596251E+02  0.14518879429E+02  0.00000000000E+00 0. -1.
         22    1    4    4    0    0 -0.43832602649E+02  0.61520932309E+01 -0.86308814496E+02  0.96996684304E+02  0.00000000000E+00 0. -1.
<mgrwt>
<rscale>  0 0.11501570E+03</rscale>
<asrwt>0</asrwt>
<pdfrwt beam="2">  1        1 0.61415742E-01 0.11501570E+03</pdfrwt>
<pdfrwt beam="1">  1       -1 0.12745235E-02 0.11501570E+03</pdfrwt>
<totfact> 0.72240386E+04</totfact>
</mgrwt>
</event>
<event>
 7    1  0.3565607E-009  0.9363528E+02  0.7818608E-02  0.1294280E+00
         -1   -1    0    0    0  501 -0.00000000000E+00  0.00000000000E+00  0.38168617164E+03  0.38168617167E+03  0.50400000000E-02 0.  1.
          1   -1    0    0  501    0  0.00000000000E+00 -0.00000000000E+00 -0.57426526773E+01  0.57426548889E+01  0.50400000000E-02 0. -1.
         23    2    1    2    0    0  0.00000000000E+00  0.00000000000E+00  0.37594351896E+03  0.38742882656E+03  0.93635282886E+02 0.  0.
    9000005    2    3    3    0    0 -0.13175354039E+01  0.34491530722E+02  0.31795760239E+03  0.31994721342E+03  0.88193462378E+01 0.  0.
         22    1    3    3    0    0  0.13175354039E+01 -0.34491530722E+02  0.57985916569E+02  0.67481613136E+02  0.00000000000E+00 0. -1.
         22    1    4    4    0    0 -0.14664602501E+01  0.87569984607E+01  0.52547131976E+02  0.53291993832E+02  0.00000000000E+00 0. -1.
         22    1    4    4    0    0  0.14892484622E+00  0.25734532261E+02  0.26541047042E+03  0.26665521959E+03  0.00000000000E+00 0. -1.
<mgrwt>
<rscale>  0 0.93635283E+02</rscale>
<asrwt>0</asrwt>
<pdfrwt beam="2">  1        1 0.88348505E-03 0.93635283E+02</pdfrwt>
<pdfrwt beam="1">  1       -1 0.58720959E-01 0.93635283E+02</pdfrwt>
<totfact> 0.50863584E+04</totfact>
</mgrwt>
</event>
<event>
 7    1  0.3565607E-009  0.9245719E+02  0.7818608E-02  0.1297008E+00
         -1   -1    0    0    0  501 -0.00000000000E+00  0.00000000000E+00  0.12655934116E+03  0.12655934126E+03  0.50400000000E-02 0.  1.
          1   -1    0    0  501    0  0.00000000000E+00 -0.00000000000E+00 -0.16886016179E+02  0.16886016931E+02  0.50400000000E-02 0. -1.
         23    2    1    2    0    0 -0.35527136788E-14  0.00000000000E+00  0.10967332499E+03  0.14344535819E+03  0.92457193199E+02 0.  0.
    9000005    2    3    3    0    0  0.27481975018E+02  0.18058004310E+02  0.86704679309E+01  0.37224232218E+02  0.15136577538E+02 0.  0.
         22    1    3    3    0    0 -0.27481975018E+02 -0.18058004310E+02  0.10100285705E+03  0.10622112598E+03  0.00000000000E+00 0.  1.
         22    1    4    4    0    0  0.22402242796E+02  0.16058692646E+02  0.12789005254E+02  0.30385864266E+02  0.00000000000E+00 0.  1.
         22    1    4    4    0    0  0.50797322215E+01  0.19993116641E+01 -0.41185373231E+01  0.68383679525E+01  0.00000000000E+00 0.  1.
<mgrwt>
<rscale>  0 0.92457193E+02</rscale>
<asrwt>0</asrwt>
<pdfrwt beam="2">  1        1 0.25978488E-02 0.92457193E+02</pdfrwt>
<pdfrwt beam="1">  1       -1 0.19470668E-01 0.92457193E+02</pdfrwt>
<totfact> 0.74910635E+04</totfact>
</mgrwt>
</event>
<event>
 7    1  0.3565607E-009  0.9196621E+02  0.7818608E-02  0.1298159E+00
          1   -1    0    0  501    0  0.00000000000E+00  0.00000000000E+00  0.58227934626E+03  0.58227934629E+03  0.50400000000E-02 0. -1.
         -1   -1    0    0    0  501 -0.00000000000E+00 -0.00000000000E+00 -0.36313240668E+01  0.36313275644E+01  0.50400000000E-02 0.  1.
         23    2    1    2    0    0  0.88817841970E-15 -0.71054273576E-14  0.57864802220E+03  0.58591067385E+03  0.91966211941E+02 0.  0.
    9000005    2    3    3    0    0  0.57673214065E+01 -0.41531358972E+02  0.40514303126E+03  0.40741110059E+03  0.92094153161E+01 0.  0.
         22    1    3    3    0    0 -0.57673214065E+01  0.41531358972E+02  0.17350499094E+03  0.17849957326E+03  0.00000000000E+00 0.  1.
         22    1    4    4    0    0  0.46302743219E+01 -0.32955815960E+02  0.35187243852E+03  0.35344269441E+03  0.00000000000E+00 0. -1.
         22    1    4    4    0    0  0.11370470846E+01 -0.85755430117E+01  0.53270592738E+02  0.53968406172E+02  0.00000000000E+00 0. -1.
<mgrwt>
<rscale>  0 0.91966212E+02</rscale>
<asrwt>0</asrwt>
<pdfrwt beam="1">  1        1 0.89581416E-01 0.91966212E+02</pdfrwt>
<pdfrwt beam="2">  1       -1 0.55866565E-03 0.91966212E+02</pdfrwt>
<totfact> 0.13811972E+05</totfact>
</mgrwt>
</event>
<event>
 7    1  0.3565607E-009  0.8990285E+02  0.7818608E-02  0.1303087E+00
          1   -1    0    0  501    0  0.00000000000E+00  0.00000000000E+00  0.12356206165E+03  0.12356206176E+03  0.50400000000E-02 0. -1.
         -1   -1    0    0    0  501 -0.00000000000E+00 -0.00000000000E+00 -0.16353162994E+02  0.16353163771E+02  0.50400000000E-02 0.  1.
         23    2    1    2    0    0  0.22204460493E-15  0.00000000000E+00  0.10720889866E+03  0.13991522553E+03  0.89902849692E+02 0.  0.
    9000005    2    3    3    0    0 -0.18982816900E+01  0.29119657806E+02  0.10597779222E+03  0.11070780238E+03  0.13166894772E+02 0.  0.
         22    1    3    3    0    0  0.18982816900E+01 -0.29119657806E+02  0.12311064342E+01  0.29207423151E+02  0.00000000000E+00 0.  1.
         22    1    4    4    0    0 -0.23384767138E+01  0.29071840908E+02  0.10625517409E+03  0.11018530949E+03  0.00000000000E+00 0.  1.
         22    1    4    4    0    0  0.44019502384E+00  0.47816897559E-01 -0.27738186453E+00  0.52249288366E+00  0.00000000000E+00 0.  1.
<mgrwt>
<rscale>  0 0.89902850E+02</rscale>
<asrwt>0</asrwt>
<pdfrwt beam="1">  1        1 0.19009548E-01 0.89902850E+02</pdfrwt>
<pdfrwt beam="2">  1       -1 0.25158713E-02 0.89902850E+02</pdfrwt>
<totfact> 0.11249335E+05</totfact>
</mgrwt>
</event>
<event>
 7    1  0.3565607E-009  0.9281246E+02  0.7818608E-02  0.1296180E+00
         -1   -1    0    0    0  501 -0.00000000000E+00  0.00000000000E+00  0.17859728251E+02  0.17859728963E+02  0.50400000000E-02 0.  1.
          1   -1    0    0  501    0  0.00000000000E+00 -0.00000000000E+00 -0.12058067298E+03  0.12058067309E+03  0.50400000000E-02 0. -1.
         23    2    1    2    0    0  0.00000000000E+00  0.00000000000E+00 -0.10272094473E+03  0.13844040205E+03  0.92812458396E+02 0.  0.
    9000005    2    3    3    0    0  0.17584557033E+02  0.34539655168E+02 -0.87864671551E+02  0.96932411519E+02  0.13171464266E+02 0.  0.
         22    1    3    3    0    0 -0.17584557033E+02 -0.34539655168E+02 -0.14856273181E+02  0.41507990532E+02  0.00000000000E+00 0.  1.
         22    1    4    4    0    0  0.16007792847E+02  0.22529496610E+02 -0.70821357072E+02  0.76022971968E+02  0.00000000000E+00 0. -1.
         22    1    4    4    0    0  0.15767641854E+01  0.12010158559E+02 -0.17043314478E+02  0.20909439550E+02  0.00000000000E+00 0. -1.
<mgrwt>
<rscale>  0 0.92812458E+02</rscale>
<asrwt>0</asrwt>
<pdfrwt beam="2">  1        1 0.18550872E-01 0.92812458E+02</pdfrwt>
<pdfrwt beam="1">  1       -1 0.27476506E-02 0.92812458E+02</pdfrwt>
<totfact> 0.10274374E+05</totfact>
</mgrwt>
</event>
<event>
 7    1  0.3565607E-009  0.8490139E+02  0.7818608E-02  0.1315691E+00
          1   -1    0    0  501    0  0.00000000000E+00  0.00000000000E+00  0.80915858844E+02  0.80915859001E+02  0.50400000000E-02 0. -1.
         -1   -1    0    0    0  501 -0.00000000000E+00 -0.00000000000E+00 -0.22270806173E+02  0.22270806743E+02  0.50400000000E-02 0.  1.
         23    2    1    2    0    0  0.88817841970E-15  0.00000000000E+00  0.58645052671E+02  0.10318666574E+03  0.84901388591E+02 0.  0.
    9000005    2    3    3    0    0  0.78320699890E+01 -0.32877194994E+02  0.60362211471E+02  0.69345863370E+02  0.47959276399E+01 0.  0.
         22    1    3    3    0    0 -0.78320699890E+01  0.32877194994E+02 -0.17171588003E+01  0.33840802374E+02  0.00000000000E+00 0.  1.
         22    1    4    4    0    0  0.19555388536E+01 -0.61569930812E+01  0.15602226871E+02  0.16886745671E+02  0.00000000000E+00 0. -1.
         22    1    4    4    0    0  0.58765311354E+01 -0.26720201912E+02  0.44759984600E+02  0.52459117700E+02  0.00000000000E+00 0. -1.
<mgrwt>
<rscale>  0 0.84901389E+02</rscale>
<asrwt>0</asrwt>
<pdfrwt beam="1">  1        1 0.12448594E-01 0.84901389E+02</pdfrwt>
<pdfrwt beam="2">  1       -1 0.34262779E-02 0.84901389E+02</pdfrwt>
<totfact> 0.12260264E+05</totfact>
</mgrwt>
</event>
<event>
 7    1  0.3565607E-009  0.9267513E+02  0.7818608E-02  0.1296500E+00
          1   -1    0    0  501    0  0.00000000000E+00  0.00000000000E+00  0.12395789236E+02  0.12395790260E+02  0.50400000000E-02 0. -1.
         -1   -1    0    0    0  501 -0.00000000000E+00 -0.00000000000E+00 -0.17321767334E+03  0.17321767341E+03  0.50400000000E-02 0.  1.
         23    2    1    2    0    0  0.00000000000E+00 -0.17763568394E-14 -0.16082188410E+03  0.18561346367E+03  0.92675128755E+02 0.  0.
    9000005    2    3    3    0    0  0.33612592203E+02 -0.13719238528E+02 -0.27799673924E+02  0.47726073889E+02  0.13672322341E+02 0.  0.
         22    1    3    3    0    0 -0.33612592203E+02  0.13719238528E+02 -0.13302221018E+03  0.13788738978E+03  0.00000000000E+00 0.  1.
         22    1    4    4    0    0  0.19968491273E+02 -0.10488307968E+02 -0.24539435853E+02  0.33330603951E+02  0.00000000000E+00 0. -1.
         22    1    4    4    0    0  0.13644100929E+02 -0.32309305602E+01 -0.32602380711E+01  0.14395469938E+02  0.00000000000E+00 0. -1.
<mgrwt>
<rscale>  0 0.92675129E+02</rscale>
<asrwt>0</asrwt>
<pdfrwt beam="1">  1        1 0.19070447E-02 0.92675129E+02</pdfrwt>
<pdfrwt beam="2">  1       -1 0.26648871E-01 0.92675129E+02</pdfrwt>
<totfact> 0.69190854E+04</totfact>
</mgrwt>
</event>
<event>
 7    1  0.3565607E-009  0.9044407E+02  0.7818608E-02  0.1301780E+00
          1   -1    0    0  501    0  0.00000000000E+00  0.00000000000E+00  0.12821684012E+03  0.12821684022E+03  0.50400000000E-02 0. -1.
         -1   -1    0    0    0  501 -0.00000000000E+00 -0.00000000000E+00 -0.15949794393E+02  0.15949795190E+02  0.50400000000E-02 0.  1.
         23    2    1    2    0    0  0.00000000000E+00  0.00000000000E+00  0.11226704573E+03  0.14416663541E+03  0.90444066742E+02 0.  0.
    9000005    2    3    3    0    0  0.43208649377E+02 -0.39181928031E+01  0.39163116370E+02  0.59157670568E+02  0.91400594844E+01 0.  0.
         22    1    3    3    0    0 -0.43208649377E+02  0.39181928031E+01  0.73103929358E+02  0.85008964842E+02  0.00000000000E+00 0.  1.
         22    1    4    4    0    0  0.28863183900E+02  0.16722937480E+01  0.26588781376E+02  0.39279043347E+02  0.00000000000E+00 0.  1.
         22    1    4    4    0    0  0.14345465477E+02 -0.55904865511E+01  0.12574334994E+02  0.19878627221E+02  0.00000000000E+00 0.  1.
<mgrwt>
<rscale>  0 0.90444067E+02</rscale>
<asrwt>0</asrwt>
<pdfrwt beam="1">  1        1 0.19725668E-01 0.90444067E+02</pdfrwt>
<pdfrwt beam="2">  1       -1 0.24538146E-02 0.90444067E+02</pdfrwt>
<totfact> 0.11140469E+05</totfact>
</mgrwt>
</event>
<event>
 7    1  0.3565607E-009  0.9503516E+02  0.7818608E-02  0.1291097E+00
         -1   -1    0    0    0  501 -0.00000000000E+00  0.00000000000E+00  0.45832630413E+02  0.45832630690E+02  0.50400000000E-02 0.  1.
          1   -1    0    0  501    0  0.00000000000E+00 -0.00000000000E+00 -0.49264476634E+02  0.49264476892E+02  0.50400000000E-02 0. -1.
         23    2    1    2    0    0  0.00000000000E+00  0.00000000000E+00 -0.34318462212E+01  0.95097107582E+02  0.95035163502E+02 0.  0.
    9000005    2    3    3    0    0 -0.34061526132E+02  0.32869749202E+02 -0.28632818992E+00  0.47657648703E+02  0.55282475528E+01 0.  0.
         22    1    3    3    0    0  0.34061526132E+02 -0.32869749202E+02 -0.31455180313E+01  0.47439458879E+02  0.00000000000E+00 0.  1.
         22    1    4    4    0    0 -0.28674033464E+02  0.25818434133E+02 -0.19287222055E+01  0.38633039040E+02  0.00000000000E+00 0. -1.
         22    1    4    4    0    0 -0.53874926681E+01  0.70513150697E+01  0.16423940156E+01  0.90246096626E+01  0.00000000000E+00 0. -1.
<mgrwt>
<rscale>  0 0.95035164E+02</rscale>
<asrwt>0</asrwt>
<pdfrwt beam="2">  1        1 0.75791503E-02 0.95035164E+02</pdfrwt>
<pdfrwt beam="1">  1       -1 0.70511739E-02 0.95035164E+02</pdfrwt>
<totfact> 0.83274273E+04</totfact>
</mgrwt>
</event>
<event>
 7    1  0.3565607E-009  0.9114849E+02  0.7818608E-02  0.1300094E+00
          1   -1    0    0  501    0  0.00000000000E+00  0.00000000000E+00  0.92099448920E+02  0.92099449058E+02  0.50400000000E-02 0. -1.
         -1   -1    0    0    0  501 -0.00000000000E+00 -0.00000000000E+00 -0.22551839526E+02  0.22551840089E+02  0.50400000000E-02 0.  1.
         23    2    1    2    0    0  0.00000000000E+00  0.00000000000E+00  0.69547609394E+02  0.11465128915E+03  0.91148494945E+02 0.  0.
    9000005    2    3    3    0    0 -0.98946499803E+01 -0.28036608380E+02  0.77077870731E+02  0.83981102590E+02  0.15095427392E+02 0.  0.
         22    1    3    3    0    0  0.98946499803E+01  0.28036608380E+02 -0.75302613364E+01  0.30670186558E+02  0.00000000000E+00 0.  1.
         22    1    4    4    0    0 -0.50393186809E+01 -0.24153456007E+02  0.71467418223E+02  0.75606719524E+02  0.00000000000E+00 0.  1.
         22    1    4    4    0    0 -0.48553312994E+01 -0.38831523734E+01  0.56104525080E+01  0.83743830654E+01  0.00000000000E+00 0.  1.
<mgrwt>
<rscale>  0 0.91148495E+02</rscale>
<asrwt>0</asrwt>
<pdfrwt beam="1">  1        1 0.14169146E-01 0.91148495E+02</pdfrwt>
<pdfrwt beam="2">  1       -1 0.34695138E-02 0.91148495E+02</pdfrwt>
<totfact> 0.10313370E+05</totfact>
</mgrwt>
</event>
<event>
 7    1  0.3565607E-009  0.9089994E+02  0.7818608E-02  0.1300687E+00
         -1   -1    0    0    0  501 -0.00000000000E+00  0.00000000000E+00  0.23249483222E+02  0.23249483768E+02  0.50400000000E-02 0.  1.
          1   -1    0    0  501    0  0.00000000000E+00 -0.00000000000E+00 -0.88849284201E+02  0.88849284344E+02  0.50400000000E-02 0. -1.
         23    2    1    2    0    0  0.00000000000E+00  0.00000000000E+00 -0.65599800979E+02  0.11209876811E+03  0.90899944576E+02 0.  0.
    9000005    2    3    3    0    0  0.47668740784E+01 -0.44370482911E+02 -0.37634843776E+02  0.59434722753E+02  0.11164316388E+02 0.  0.
         22    1    3    3    0    0 -0.47668740784E+01  0.44370482911E+02 -0.27964957203E+02  0.52664045360E+02  0.00000000000E+00 0.  1.
         22    1    4    4    0    0  0.29379252110E+01 -0.32049496393E+02 -0.20166065724E+02  0.37979887182E+02  0.00000000000E+00 0.  1.
         22    1    4    4    0    0  0.18289488674E+01 -0.12320986519E+02 -0.17468778052E+02  0.21454835571E+02  0.00000000000E+00 0.  1.
<mgrwt>
<rscale>  0 0.90899945E+02</rscale>
<asrwt>0</asrwt>
<pdfrwt beam="2">  1        1 0.13669121E-01 0.90899945E+02</pdfrwt>
<pdfrwt beam="1">  1       -1 0.35768437E-02 0.90899945E+02</pdfrwt>
<totfact> 0.10330252E+05</totfact>
</mgrwt>
</event>
<event>
 7    1  0.3565607E-009  0.9296170E+02  0.7818608E-02  0.1295834E+00
          1   -1    0    0  501    0  0.00000000000E+00  0.00000000000E+00  0.16083924964E+03  0.16083924972E+03  0.50400000000E-02 0. -1.
         -1   -1    0    0    0  501 -0.00000000000E+00 -0.00000000000E+00 -0.13432474893E+02  0.13432475838E+02  0.50400000000E-02 0.  1.
         23    2    1    2    0    0  0.00000000000E+00  0.17763568394E-14  0.14740677475E+03  0.17427172556E+03  0.92961696885E+02 0.  0.
    9000005    2    3    3    0    0  0.39404352518E+02 -0.74707485156E+01  0.11484875862E+03  0.12261381721E+03  0.15342611702E+02 0.  0.
         22    1    3    3    0    0 -0.39404352518E+02  0.74707485156E+01  0.32558016131E+02  0.51657908350E+02  0.00000000000E+00 0.  1.
         22    1    4    4    0    0  0.32298494075E+02 -0.30292723187E+01  0.10377225997E+03  0.10872465750E+03  0.00000000000E+00 0.  1.
         22    1    4    4    0    0  0.71058584426E+01 -0.44414761969E+01  0.11076498652E+02  0.13889159709E+02  0.00000000000E+00 0.  1.
<mgrwt>
<rscale>  0 0.92961697E+02</rscale>
<asrwt>0</asrwt>
<pdfrwt beam="1">  1        1 0.24744502E-01 0.92961697E+02</pdfrwt>
<pdfrwt beam="2">  1       -1 0.20665345E-02 0.92961697E+02</pdfrwt>
<totfact> 0.10780041E+05</totfact>
</mgrwt>
</event>
<event>
 7    1  0.3565607E-009  0.9104810E+02  0.7818608E-02  0.1300333E+00
          1   -1    0    0  501    0  0.00000000000E+00  0.00000000000E+00  0.53930603198E+02  0.53930603434E+02  0.50400000000E-02 0. -1.
         -1   -1    0    0    0  501 -0.00000000000E+00 -0.00000000000E+00 -0.38427885917E+02  0.38427886248E+02  0.50400000000E-02 0.  1.
         23    2    1    2    0    0 -0.88817841970E-15  0.00000000000E+00  0.15502717281E+02  0.92358489682E+02  0.91048099229E+02 0.  0.
    9000005    2    3    3    0    0 -0.62846195545E+01  0.16616683201E+02 -0.33244870695E+02  0.40474600689E+02  0.14743177062E+02 0.  0.
         22    1    3    3    0    0  0.62846195545E+01 -0.16616683201E+02  0.48747587976E+02  0.51883888992E+02  0.00000000000E+00 0. -1.
         22    1    4    4    0    0 -0.10845182194E+02  0.11701924628E+02 -0.19610933127E+02  0.25281252242E+02  0.00000000000E+00 0. -1.
         22    1    4    4    0    0  0.45605626400E+01  0.49147585728E+01 -0.13633937568E+02  0.15193348447E+02  0.00000000000E+00 0. -1.
<mgrwt>
<rscale>  0 0.91048099E+02</rscale>
<asrwt>0</asrwt>
<pdfrwt beam="1">  1        1 0.82970159E-02 0.91048099E+02</pdfrwt>
<pdfrwt beam="2">  1       -1 0.59119825E-02 0.91048099E+02</pdfrwt>
<totfact> 0.95209378E+04</totfact>
</mgrwt>
</event>
<event>
 7    1  0.3565607E-009  0.8646307E+02  0.7818608E-02  0.1311650E+00
         -1   -1    0    0    0  501 -0.00000000000E+00  0.00000000000E+00  0.21729175952E+01  0.21729234402E+01  0.50400000000E-02 0.  1.
          1   -1    0    0  501    0  0.00000000000E+00 -0.00000000000E+00 -0.86011696366E+03  0.86011696368E+03  0.50400000000E-02 0. -1.
         23    2    1    2    0    0 -0.35527136788E-14  0.35527136788E-14 -0.85794404607E+03  0.86228988712E+03  0.86463074446E+02 0.  0.
    9000005    2    3    3    0    0  0.30822099464E+02 -0.18634633287E+02 -0.66675576513E+03  0.66773858246E+03  0.37832273332E+01 0.  0.
         22    1    3    3    0    0 -0.30822099464E+02  0.18634633287E+02 -0.19118828094E+03  0.19455130465E+03  0.00000000000E+00 0.  1.
         22    1    4    4    0    0  0.21037588627E+01 -0.63376493698E+00 -0.56001840850E+02  0.56044925175E+02  0.00000000000E+00 0. -1.
         22    1    4    4    0    0  0.28718340601E+02 -0.18000868350E+02 -0.61075392428E+03  0.61169365729E+03  0.00000000000E+00 0. -1.
<mgrwt>
<rscale>  0 0.86463074E+02</rscale>
<asrwt>0</asrwt>
<pdfrwt beam="2">  1        1 0.13232542E+00 0.86463074E+02</pdfrwt>
<pdfrwt beam="1">  1       -1 0.33429615E-03 0.86463074E+02</pdfrwt>
<totfact> 0.16121450E+05</totfact>
</mgrwt>
</event>
<event>
 7    1  0.3565607E-009  0.9289568E+02  0.7818608E-02  0.1295987E+00
          1   -1    0    0  501    0  0.00000000000E+00  0.00000000000E+00  0.73774923143E+01  0.73774940359E+01  0.50400000000E-02 0. -1.
         -1   -1    0    0    0  501 -0.00000000000E+00 -0.00000000000E+00 -0.29243017986E+03  0.29243017990E+03  0.50400000000E-02 0.  1.
         23    2    1    2    0    0  0.44408920985E-15 -0.71054273576E-14 -0.28505268754E+03  0.29980767394E+03  0.92895676303E+02 0.  0.
    9000005    2    3    3    0    0  0.28791641404E+01 -0.45632611574E+02 -0.14688366975E+03  0.15426969847E+03  0.11562984107E+02 0.  0.
         22    1    3    3    0    0 -0.28791641404E+01  0.45632611574E+02 -0.13816901780E+03  0.14553797547E+03  0.00000000000E+00 0.  1.
         22    1    4    4    0    0  0.11011508184E+01 -0.41252038283E+02 -0.13971931165E+03  0.14568606400E+03  0.00000000000E+00 0.  1.
         22    1    4    4    0    0  0.17780133220E+01 -0.43805732911E+01 -0.71643580978E+01  0.85836344683E+01  0.00000000000E+00 0.  1.
<mgrwt>
<rscale>  0 0.92895676E+02</rscale>
<asrwt>0</asrwt>
<pdfrwt beam="1">  1        1 0.11349992E-02 0.92895676E+02</pdfrwt>
<pdfrwt beam="2">  1       -1 0.44989250E-01 0.92895676E+02</pdfrwt>
<totfact> 0.58272525E+04</totfact>
</mgrwt>
</event>
<event>
 7    1  0.3565607E-009  0.9302289E+02  0.7818608E-02  0.1295692E+00
          1   -1    0    0  501    0  0.00000000000E+00  0.00000000000E+00  0.26562244453E+03  0.26562244458E+03  0.50400000000E-02 0. -1.
         -1   -1    0    0    0  501 -0.00000000000E+00 -0.00000000000E+00 -0.81443207363E+01  0.81443222957E+01  0.50400000000E-02 0.  1.
         23    2    1    2    0    0  0.00000000000E+00  0.00000000000E+00  0.25747812380E+03  0.27376676688E+03  0.93022891871E+02 0.  0.
    9000005    2    3    3    0    0  0.24261242664E+02 -0.18041646887E+02  0.23274986299E+03  0.23470789080E+03  0.10892027548E+01 0.  0.
         22    1    3    3    0    0 -0.24261242664E+02  0.18041646887E+02  0.24728260804E+02  0.39058876077E+02  0.00000000000E+00 0.  1.
         22    1    4    4    0    0  0.22186430866E+02 -0.16123086097E+02  0.21024464578E+03  0.21202594817E+03  0.00000000000E+00 0. -1.
         22    1    4    4    0    0  0.20748117973E+01 -0.19185607901E+01  0.22505217214E+02  0.22681942627E+02  0.00000000000E+00 0. -1.
<mgrwt>
<rscale>  0 0.93022892E+02</rscale>
<asrwt>0</asrwt>
<pdfrwt beam="1">  1        1 0.40864991E-01 0.93022892E+02</pdfrwt>
<pdfrwt beam="2">  1       -1 0.12529726E-02 0.93022892E+02</pdfrwt>
<totfact> 0.11861235E+05</totfact>
</mgrwt>
</event>
<event>
 7    1  0.3565607E-009  0.9047047E+02  0.7818608E-02  0.1301716E+00
         -1   -1    0    0    0  501 -0.00000000000E+00  0.00000000000E+00  0.31245349018E+01  0.31245389667E+01  0.50400000000E-02 0.  1.
          1   -1    0    0  501    0  0.00000000000E+00 -0.00000000000E+00 -0.65488944590E+03  0.65488944592E+03  0.50400000000E-02 0. -1.
         23    2    1    2    0    0  0.17763568394E-14 -0.71054273576E-14 -0.65176491100E+03  0.65801398489E+03  0.90470465331E+02 0.  0.
    9000005    2    3    3    0    0  0.12588735075E+02 -0.41135298950E+02 -0.40995889320E+03  0.41241117685E+03  0.12887808528E+02 0.  0.
         22    1    3    3    0    0 -0.12588735075E+02  0.41135298950E+02 -0.24180601780E+03  0.24560280804E+03  0.00000000000E+00 0.  1.
         22    1    4    4    0    0  0.12545221911E+02 -0.31188341750E+02 -0.26724354382E+03  0.26934959991E+03  0.00000000000E+00 0.  1.
         22    1    4    4    0    0  0.43513164175E-01 -0.99469572004E+01 -0.14271534937E+03  0.14306157694E+03  0.00000000000E+00 0.  1.
<mgrwt>
<rscale>  0 0.90470465E+02</rscale>
<asrwt>0</asrwt>
<pdfrwt beam="2">  1        1 0.10075211E+00 0.90470465E+02</pdfrwt>
<pdfrwt beam="1">  1       -1 0.48069851E-03 0.90470465E+02</pdfrwt>
<totfact> 0.14506101E+05</totfact>
</mgrwt>
</event>
<event>
 7    1  0.3565607E-009  0.9141519E+02  0.7818608E-02  0.1299460E+00
          1   -1    0    0  501    0  0.00000000000E+00  0.00000000000E+00  0.33682247135E+03  0.33682247139E+03  0.50400000000E-02 0. -1.
         -1   -1    0    0    0  501 -0.00000000000E+00 -0.00000000000E+00 -0.62026256169E+01  0.62026276646E+01  0.50400000000E-02 0.  1.
         23    2    1    2    0    0  0.00000000000E+00  0.00000000000E+00  0.33061984574E+03  0.34302509906E+03  0.91415185759E+02 0.  0.
    9000005    2    3    3    0    0 -0.17846808334E+02 -0.40979051104E+02  0.19870071253E+03  0.20373960483E+03  0.54829022721E+01 0.  0.
         22    1    3    3    0    0  0.17846808334E+02  0.40979051104E+02  0.13191913320E+03  0.13928549423E+03  0.00000000000E+00 0.  1.
         22    1    4    4    0    0 -0.17666585927E+02 -0.40851748223E+02  0.19426588770E+03  0.19929929431E+03  0.00000000000E+00 0. -1.
         22    1    4    4    0    0 -0.18022240610E+00 -0.12730288087E+00  0.44348248355E+01  0.44403105140E+01  0.00000000000E+00 0. -1.
<mgrwt>
<rscale>  0 0.91415186E+02</rscale>
<asrwt>0</asrwt>
<pdfrwt beam="1">  1        1 0.51818836E-01 0.91415186E+02</pdfrwt>
<pdfrwt beam="2">  1       -1 0.95425036E-03 0.91415186E+02</pdfrwt>
<totfact> 0.13001600E+05</totfact>
</mgrwt>
</event>
<event>
 7    1  0.3565607E-009  0.9089024E+02  0.7818608E-02  0.1300710E+00
          1   -1    0    0  501    0  0.00000000000E+00  0.00000000000E+00  0.15764610811E+01  0.15764691376E+01  0.50400000000E-02 0. -1.
         -1   -1    0    0    0  501 -0.00000000000E+00 -0.00000000000E+00 -0.13100568853E+04  0.13100568854E+04  0.50400000000E-02 0.  1.
         23    2    1    2    0    0  0.00000000000E+00  0.00000000000E+00 -0.13084804243E+04  0.13116333545E+04  0.90890241141E+02 0.  0.
    9000005    2    3    3    0    0 -0.69115747698E+01 -0.97991421370E+01 -0.12861823441E+04  0.12863154275E+04  0.14091255018E+02 0.  0.
         22    1    3    3    0    0  0.69115747698E+01  0.97991421370E+01 -0.22298080117E+02  0.25317927034E+02  0.00000000000E+00 0. -1.
         22    1    4    4    0    0 -0.16914142268E+01  0.36553583219E+01 -0.31877293244E+03  0.31879837669E+03  0.00000000000E+00 0. -1.
         22    1    4    4    0    0 -0.52201605430E+01 -0.13454500459E+02 -0.96740941171E+03  0.96751705076E+03  0.00000000000E+00 0. -1.
<mgrwt>
<rscale>  0 0.90890241E+02</rscale>
<asrwt>0</asrwt>
<pdfrwt beam="1">  1        1 0.24253414E-03 0.90890241E+02</pdfrwt>
<pdfrwt beam="2">  1       -1 0.20154634E+00 0.90890241E+02</pdfrwt>
<totfact> 0.17683407E+04</totfact>
</mgrwt>
</event>
<event>
 7    1  0.3565607E-009  0.7497247E+02  0.7818608E-02  0.1343956E+00
          1   -1    0    0  501    0  0.00000000000E+00  0.00000000000E+00  0.14817057278E+03  0.14817057286E+03  0.50400000000E-02 0. -1.
         -1   -1    0    0    0  501 -0.00000000000E+00 -0.00000000000E+00 -0.94837846078E+01  0.94837859470E+01  0.50400000000E-02 0.  1.
         23    2    1    2    0    0  0.00000000000E+00 -0.35527136788E-14  0.13868678817E+03  0.15765435881E+03  0.74972472542E+02 0.  0.
    9000005    2    3    3    0    0 -0.29409662292E+02  0.16959341711E+02  0.10074262306E+03  0.10673965393E+03  0.95775838426E+01 0.  0.
         22    1    3    3    0    0  0.29409662292E+02 -0.16959341711E+02  0.37944165113E+02  0.50914704885E+02  0.00000000000E+00 0.  1.
         22    1    4    4    0    0 -0.25867273693E+02  0.10546451879E+02  0.78592228995E+02  0.83409123925E+02  0.00000000000E+00 0.  1.
         22    1    4    4    0    0 -0.35423885990E+01  0.64128898320E+01  0.22150394062E+02  0.23330530000E+02  0.00000000000E+00 0.  1.
<mgrwt>
<rscale>  0 0.74972473E+02</rscale>
<asrwt>0</asrwt>
<pdfrwt beam="1">  1        1 0.22795472E-01 0.74972473E+02</pdfrwt>
<pdfrwt beam="2">  1       -1 0.14590440E-02 0.74972473E+02</pdfrwt>
<totfact> 0.18853386E+05</totfact>
</mgrwt>
</event>
<event>
 7    1  0.3565607E-009  0.8854489E+02  0.7818608E-02  0.1306414E+00
          1   -1    0    0  501    0  0.00000000000E+00  0.00000000000E+00  0.56328834197E+02  0.56328834423E+02  0.50400000000E-02 0. -1.
         -1   -1    0    0    0  501 -0.00000000000E+00 -0.00000000000E+00 -0.34796552916E+02  0.34796553281E+02  0.50400000000E-02 0.  1.
         23    2    1    2    0    0 -0.35527136788E-14  0.35527136788E-14  0.21532281281E+02  0.91125387704E+02  0.88544887752E+02 0.  0.
    9000005    2    3    3    0    0  0.27065536511E+02 -0.24484195391E+02  0.36531063579E+02  0.51666769368E+02  0.17080281358E+01 0.  0.
         22    1    3    3    0    0 -0.27065536511E+02  0.24484195391E+02 -0.14998782298E+02  0.39458618336E+02  0.00000000000E+00 0.  1.
         22    1    4    4    0    0  0.33323709261E+01 -0.25237662037E+01  0.47706192253E+01  0.63429409293E+01  0.00000000000E+00 0. -1.
         22    1    4    4    0    0  0.23733165585E+02 -0.21960429187E+02  0.31760444353E+02  0.45323828438E+02  0.00000000000E+00 0. -1.
<mgrwt>
<rscale>  0 0.88544888E+02</rscale>
<asrwt>0</asrwt>
<pdfrwt beam="1">  1        1 0.86659744E-02 0.88544888E+02</pdfrwt>
<pdfrwt beam="2">  1       -1 0.53533159E-02 0.88544888E+02</pdfrwt>
<totfact> 0.10353206E+05</totfact>
</mgrwt>
</event>
<event>
 7    1  0.3565607E-009  0.9177361E+02  0.7818608E-02  0.1298613E+00
          1   -1    0    0  501    0  0.00000000000E+00  0.00000000000E+00  0.56678853069E+03  0.56678853071E+03  0.50400000000E-02 0. -1.
         -1   -1    0    0    0  501 -0.00000000000E+00 -0.00000000000E+00 -0.37149622952E+01  0.37149657141E+01  0.50400000000E-02 0.  1.
         23    2    1    2    0    0  0.00000000000E+00  0.00000000000E+00  0.56307356839E+03  0.57050349642E+03  0.91773612819E+02 0.  0.
    9000005    2    3    3    0    0  0.92947410307E+01  0.10535490972E+02  0.55304008236E+03  0.55323909308E+03  0.47720678567E+01 0.  0.
         22    1    3    3    0    0 -0.92947410307E+01 -0.10535490972E+02  0.10033486025E+02  0.17264403339E+02  0.00000000000E+00 0.  1.
         22    1    4    4    0    0  0.20200654975E+01  0.53807657703E+01  0.25949672571E+03  0.25956036669E+03  0.00000000000E+00 0.  1.
         22    1    4    4    0    0  0.72746755331E+01  0.51547252017E+01  0.29354335666E+03  0.29367872639E+03  0.00000000000E+00 0.  1.
<mgrwt>
<rscale>  0 0.91773613E+02</rscale>
<asrwt>0</asrwt>
<pdfrwt beam="1">  1        1 0.87198288E-01 0.91773613E+02</pdfrwt>
<pdfrwt beam="2">  1       -1 0.57153258E-03 0.91773613E+02</pdfrwt>
<totfact> 0.13860571E+05</totfact>
</mgrwt>
</event>
<event>
 7    1  0.3565607E-009  0.9117097E+02  0.7818608E-02  0.1300041E+00
          1   -1    0    0  501    0  0.00000000000E+00  0.00000000000E+00  0.71215674274E+03  0.71215674276E+03  0.50400000000E-02 0. -1.
         -1   -1    0    0    0  501 -0.00000000000E+00 -0.00000000000E+00 -0.29179460644E+01  0.29179504170E+01  0.50400000000E-02 0.  1.
         23    2    1    2    0    0 -0.35527136788E-14  0.00000000000E+00  0.70923879667E+03  0.71507469317E+03  0.91170971856E+02 0.  0.
    9000005    2    3    3    0    0  0.19138781258E+02  0.19522621872E+02  0.63991419764E+03  0.64055405345E+03  0.84787583717E+01 0.  0.
         22    1    3    3    0    0 -0.19138781258E+02 -0.19522621872E+02  0.69324599036E+02  0.74520639720E+02  0.00000000000E+00 0.  1.
         22    1    4    4    0    0  0.19357222313E+02  0.18962118955E+02  0.57600452309E+03  0.57664154779E+03  0.00000000000E+00 0. -1.
         22    1    4    4    0    0 -0.21844105539E+00  0.56050291752E+00  0.63909674543E+02  0.63912505663E+02  0.00000000000E+00 0. -1.
<mgrwt>
<rscale>  0 0.91170972E+02</rscale>
<asrwt>0</asrwt>
<pdfrwt beam="1">  1        1 0.10956260E+00 0.91170972E+02</pdfrwt>
<pdfrwt beam="2">  1       -1 0.44891503E-03 0.91170972E+02</pdfrwt>
<totfact> 0.14216627E+05</totfact>
</mgrwt>
</event>
<event>
 7    1  0.3565607E-009  0.8966102E+02  0.7818608E-02  0.1303675E+00
          1   -1    0    0  501    0  0.00000000000E+00  0.00000000000E+00  0.83499246325E+03  0.83499246327E+03  0.50400000000E-02 0. -1.
         -1   -1    0    0    0  501 -0.00000000000E+00 -0.00000000000E+00 -0.24069350421E+01  0.24069403189E+01  0.50400000000E-02 0.  1.
         23    2    1    2    0    0  0.00000000000E+00  0.00000000000E+00  0.83258552821E+03  0.83739940359E+03  0.89661024653E+02 0.  0.
    9000005    2    3    3    0    0 -0.17549737220E+02 -0.22065217023E+02  0.73893682000E+03  0.73959885334E+03  0.13563658574E+02 0.  0.
         22    1    3    3    0    0  0.17549737220E+02  0.22065217023E+02  0.93648708212E+02  0.97800550247E+02  0.00000000000E+00 0.  1.
         22    1    4    4    0    0 -0.64183889657E+01 -0.18521669424E+02  0.46743477933E+03  0.46784561650E+03  0.00000000000E+00 0. -1.
         22    1    4    4    0    0 -0.11131348254E+02 -0.35435475987E+01  0.27150204067E+03  0.27175323684E+03  0.00000000000E+00 0. -1.
<mgrwt>
<rscale>  0 0.89661025E+02</rscale>
<asrwt>0</asrwt>
<pdfrwt beam="1">  1        1 0.12846040E+00 0.89661025E+02</pdfrwt>
<pdfrwt beam="2">  1       -1 0.37029803E-03 0.89661025E+02</pdfrwt>
<totfact> 0.14705542E+05</totfact>
</mgrwt>
</event>
<event>
 7    1  0.3565607E-009  0.9297063E+02  0.7818608E-02  0.1295813E+00
         -1   -1    0    0    0  501 -0.00000000000E+00  0.00000000000E+00  0.84099222952E+01  0.84099238054E+01  0.50400000000E-02 0.  1.
          1   -1    0    0  501    0  0.00000000000E+00 -0.00000000000E+00 -0.25694460535E+03  0.25694460540E+03  0.50400000000E-02 0. -1.
         23    2    1    2    0    0  0.71054273576E-14  0.00000000000E+00 -0.24853468305E+03  0.26535452920E+03  0.92970627019E+02 0.  0.
    9000005    2    3    3    0    0  0.41388349833E+02 -0.10997571978E+02 -0.17316057520E+03  0.17866428623E+03  0.10119302386E+02 0.  0.
         22    1    3    3    0    0 -0.41388349833E+02  0.10997571978E+02 -0.75374107850E+02  0.86690242966E+02  0.00000000000E+00 0.  1.
         22    1    4    4    0    0  0.14162382811E+02 -0.71671381382E+01 -0.78654381028E+02  0.80239968911E+02  0.00000000000E+00 0.  1.
         22    1    4    4    0    0  0.27225967021E+02 -0.38304338396E+01 -0.94506194172E+02  0.98424317323E+02  0.00000000000E+00 0.  1.
<mgrwt>
<rscale>  0 0.92970627E+02</rscale>
<asrwt>0</asrwt>
<pdfrwt beam="2">  1        1 0.39529933E-01 0.92970627E+02</pdfrwt>
<pdfrwt beam="1">  1       -1 0.12938345E-02 0.92970627E+02</pdfrwt>
<totfact> 0.11801792E+05</totfact>
</mgrwt>
</event>
<event>
 7    1  0.3565607E-009  0.9248606E+02  0.7818608E-02  0.1296941E+00
         -1   -1    0    0    0  501 -0.00000000000E+00  0.00000000000E+00  0.71846665683E+01  0.71846683361E+01  0.50400000000E-02 0.  1.
          1   -1    0    0  501    0  0.00000000000E+00 -0.00000000000E+00 -0.29763631097E+03  0.29763631101E+03  0.50400000000E-02 0. -1.
         23    2    1    2    0    0  0.00000000000E+00  0.00000000000E+00 -0.29045164440E+03  0.30482097935E+03  0.92486062276E+02 0.  0.
    9000005    2    3    3    0    0  0.99867799026E+01 -0.32731143255E+02 -0.24745939990E+03  0.24987194297E+03  0.53637462278E+01 0.  0.
         22    1    3    3    0    0 -0.99867799026E+01  0.32731143255E+02 -0.42992244503E+02  0.54949036380E+02  0.00000000000E+00 0.  1.
         22    1    4    4    0    0  0.70354684277E+01 -0.27734154077E+02 -0.19403965056E+03  0.19613787780E+03  0.00000000000E+00 0. -1.
         22    1    4    4    0    0  0.29513114749E+01 -0.49969891781E+01 -0.53419749339E+02  0.53734065170E+02  0.00000000000E+00 0. -1.
<mgrwt>
<rscale>  0 0.92486062E+02</rscale>
<asrwt>0</asrwt>
<pdfrwt beam="2">  1        1 0.45790192E-01 0.92486062E+02</pdfrwt>
<pdfrwt beam="1">  1       -1 0.11053337E-02 0.92486062E+02</pdfrwt>
<totfact> 0.12315312E+05</totfact>
</mgrwt>
</event>
<event>
 7    1  0.3565607E-009  0.8186284E+02  0.7818608E-02  0.1323847E+00
          1   -1    0    0  501    0  0.00000000000E+00  0.00000000000E+00  0.82780164280E+02  0.82780164434E+02  0.50400000000E-02 0. -1.
         -1   -1    0    0    0  501 -0.00000000000E+00 -0.00000000000E+00 -0.20238920212E+02  0.20238920840E+02  0.50400000000E-02 0.  1.
         23    2    1    2    0    0  0.00000000000E+00  0.00000000000E+00  0.62541244068E+02  0.10301908527E+03  0.81862840905E+02 0.  0.
    9000005    2    3    3    0    0 -0.13529230623E+02 -0.83053079234E+01  0.78220616285E+02  0.80706287733E+02  0.11959174163E+02 0.  0.
         22    1    3    3    0    0  0.13529230623E+02  0.83053079234E+01 -0.15679372217E+02  0.22312797540E+02  0.00000000000E+00 0.  1.
         22    1    4    4    0    0 -0.10426591433E+02 -0.65003846595E+01  0.30951956652E+02  0.33301537956E+02  0.00000000000E+00 0.  1.
         22    1    4    4    0    0 -0.31026391900E+01 -0.18049232639E+01  0.47268659633E+02  0.47404749777E+02  0.00000000000E+00 0.  1.
<mgrwt>
<rscale>  0 0.81862841E+02</rscale>
<asrwt>0</asrwt>
<pdfrwt beam="1">  1        1 0.12735410E-01 0.81862841E+02</pdfrwt>
<pdfrwt beam="2">  1       -1 0.31136801E-02 0.81862841E+02</pdfrwt>
<totfact> 0.13579012E+05</totfact>
</mgrwt>
</event>
<event>
 7    1  0.3565607E-009  0.9214888E+02  0.7818608E-02  0.1297730E+00
          1   -1    0    0  501    0  0.00000000000E+00  0.00000000000E+00  0.17763474254E+03  0.17763474261E+03  0.50400000000E-02 0. -1.
         -1   -1    0    0    0  501 -0.00000000000E+00 -0.00000000000E+00 -0.11950668396E+02  0.11950669459E+02  0.50400000000E-02 0.  1.
         23    2    1    2    0    0 -0.88817841970E-15  0.00000000000E+00  0.16568407415E+03  0.18958541207E+03  0.92148879782E+02 0.  0.
    9000005    2    3    3    0    0  0.67076122109E+01 -0.16971263192E+02  0.16947210714E+03  0.17094768072E+03  0.13011479920E+02 0.  0.
         22    1    3    3    0    0 -0.67076122109E+01  0.16971263192E+02 -0.37880329955E+01  0.18637731350E+02  0.00000000000E+00 0.  1.
         22    1    4    4    0    0  0.10250567774E+02 -0.13983324237E+02  0.11794303769E+03  0.11921060203E+03  0.00000000000E+00 0.  1.
         22    1    4    4    0    0 -0.35429555635E+01 -0.29879389543E+01  0.51529069450E+02  0.51737078693E+02  0.00000000000E+00 0.  1.
<mgrwt>
<rscale>  0 0.92148880E+02</rscale>
<asrwt>0</asrwt>
<pdfrwt beam="1">  1        1 0.27328423E-01 0.92148880E+02</pdfrwt>
<pdfrwt beam="2">  1       -1 0.18385644E-02 0.92148880E+02</pdfrwt>
<totfact> 0.11247652E+05</totfact>
</mgrwt>
</event>
<event>
 7    1  0.3565607E-009  0.8998209E+02  0.7818608E-02  0.1302895E+00
          1   -1    0    0  501    0  0.00000000000E+00  0.00000000000E+00  0.61481057992E+01  0.61481078650E+01  0.50400000000E-02 0. -1.
         -1   -1    0    0    0  501 -0.00000000000E+00 -0.00000000000E+00 -0.32923863606E+03  0.32923863610E+03  0.50400000000E-02 0.  1.
         23    2    1    2    0    0  0.00000000000E+00  0.00000000000E+00 -0.32309053026E+03  0.33538674396E+03  0.89982094232E+02 0.  0.
    9000005    2    3    3    0    0  0.12755859124E+02  0.15631634341E+02 -0.31112472764E+03  0.31192954109E+03  0.97150667609E+01 0.  0.
         22    1    3    3    0    0 -0.12755859124E+02 -0.15631634341E+02 -0.11965802617E+02  0.23457202869E+02  0.00000000000E+00 0. -1.
         22    1    4    4    0    0  0.68196903729E+01  0.68498945641E+01 -0.83401226562E+02  0.83959477275E+02  0.00000000000E+00 0. -1.
         22    1    4    4    0    0  0.59361687512E+01  0.87817397767E+01 -0.22772350108E+03  0.22797006382E+03  0.00000000000E+00 0. -1.
<mgrwt>
<rscale>  0 0.89982094E+02</rscale>
<asrwt>0</asrwt>
<pdfrwt beam="1">  1        1 0.94586285E-03 0.89982094E+02</pdfrwt>
<pdfrwt beam="2">  1       -1 0.50652084E-01 0.89982094E+02</pdfrwt>
<totfact> 0.60370048E+04</totfact>
</mgrwt>
</event>
<event>
 7    1  0.3565607E-009  0.9440793E+02  0.7818608E-02  0.1292515E+00
          1   -1    0    0  501    0  0.00000000000E+00  0.00000000000E+00  0.36520994811E+03  0.36520994814E+03  0.50400000000E-02 0. -1.
         -1   -1    0    0    0  501 -0.00000000000E+00 -0.00000000000E+00 -0.61011866168E+01  0.61011886985E+01  0.50400000000E-02 0.  1.
         23    2    1    2    0    0  0.35527136788E-14  0.00000000000E+00  0.35910876149E+03  0.37131113684E+03  0.94407932731E+02 0.  0.
    9000005    2    3    3    0    0  0.22253901637E+02 -0.37999557415E+02  0.23767710389E+03  0.24214128754E+03  0.14240607929E+02 0.  0.
         22    1    3    3    0    0 -0.22253901637E+02  0.37999557415E+02  0.12143165760E+03  0.12916984930E+03  0.00000000000E+00 0.  1.
         22    1    4    4    0    0  0.47861484505E+00 -0.42648495790E+01  0.51770281149E+02  0.51947858708E+02  0.00000000000E+00 0. -1.
         22    1    4    4    0    0  0.21775286792E+02 -0.33734707836E+02  0.18590682275E+03  0.19019342883E+03  0.00000000000E+00 0. -1.
<mgrwt>
<rscale>  0 0.94407933E+02</rscale>
<asrwt>0</asrwt>
<pdfrwt beam="1">  1        1 0.56186154E-01 0.94407933E+02</pdfrwt>
<pdfrwt beam="2">  1       -1 0.93864412E-03 0.94407933E+02</pdfrwt>
<totfact> 0.12105765E+05</totfact>
</mgrwt>
</event>
<event>
 7    1  0.3565607E-009  0.9565041E+02  0.7818608E-02  0.1289718E+00
          1   -1    0    0  501    0  0.00000000000E+00  0.00000000000E+00  0.17775105629E+02  0.17775106343E+02  0.50400000000E-02 0. -1.
         -1   -1    0    0    0  501 -0.00000000000E+00 -0.00000000000E+00 -0.12867716159E+03  0.12867716169E+03  0.50400000000E-02 0.  1.
         23    2    1    2    0    0  0.00000000000E+00  0.00000000000E+00 -0.11090205596E+03  0.14645226803E+03  0.95650409279E+02 0.  0.
    9000005    2    3    3    0    0  0.41374694922E+02 -0.54380953469E+01 -0.91097831447E+02  0.10026086656E+03  0.34623993153E+01 0.  0.
         22    1    3    3    0    0 -0.41374694922E+02  0.54380953469E+01 -0.19804224513E+02  0.46191401466E+02  0.00000000000E+00 0. -1.
         22    1    4    4    0    0  0.73360610267E+01  0.11952897775E+00 -0.17865210926E+02  0.19313151996E+02  0.00000000000E+00 0. -1.
         22    1    4    4    0    0  0.34038633895E+02 -0.55576243247E+01 -0.73232620521E+02  0.80947714569E+02  0.00000000000E+00 0. -1.
<mgrwt>
<rscale>  0 0.95650409E+02</rscale>
<asrwt>0</asrwt>
<pdfrwt beam="1">  1        1 0.27346318E-02 0.95650409E+02</pdfrwt>
<pdfrwt beam="2">  1       -1 0.19796486E-01 0.95650409E+02</pdfrwt>
<totfact> 0.68353189E+04</totfact>
</mgrwt>
</event>
<event>
 7    1  0.3565607E-009  0.9007654E+02  0.7818608E-02  0.1302666E+00
         -1   -1    0    0    0  501 -0.00000000000E+00  0.00000000000E+00  0.97244844540E+01  0.97244857601E+01  0.50400000000E-02 0.  1.
          1   -1    0    0  501    0  0.00000000000E+00 -0.00000000000E+00 -0.20859157807E+03  0.20859157813E+03  0.50400000000E-02 0. -1.
         23    2    1    2    0    0  0.00000000000E+00  0.00000000000E+00 -0.19886709361E+03  0.21831606389E+03  0.90076538729E+02 0.  0.
    9000005    2    3    3    0    0  0.33630045952E+02  0.14892149915E+02 -0.38219109173E+02  0.53511540210E+02  0.70730834835E+01 0.  0.
         22    1    3    3    0    0 -0.33630045952E+02 -0.14892149915E+02 -0.16064798444E+03  0.16480452368E+03  0.00000000000E+00 0. -1.
         22    1    4    4    0    0  0.23083814159E+02  0.67966044628E+01 -0.26414223255E+02  0.35731883501E+02  0.00000000000E+00 0.  1.
         22    1    4    4    0    0  0.10546231792E+02  0.80955454517E+01 -0.11804885917E+02  0.17779656709E+02  0.00000000000E+00 0.  1.
<mgrwt>
<rscale>  0 0.90076539E+02</rscale>
<asrwt>0</asrwt>
<pdfrwt beam="2">  1        1 0.32091009E-01 0.90076539E+02</pdfrwt>
<pdfrwt beam="1">  1       -1 0.14960748E-02 0.90076539E+02</pdfrwt>
<totfact> 0.12332070E+05</totfact>
</mgrwt>
</event>
<event>
 7    1  0.3565607E-009  0.9059517E+02  0.7818608E-02  0.1301417E+00
         -1   -1    0    0    0  501 -0.00000000000E+00  0.00000000000E+00  0.24832130269E+03  0.24832130274E+03  0.50400000000E-02 0.  1.
          1   -1    0    0  501    0  0.00000000000E+00 -0.00000000000E+00 -0.82629674784E+01  0.82629690155E+01  0.50400000000E-02 0. -1.
         23    2    1    2    0    0  0.00000000000E+00 -0.35527136788E-14  0.24005833521E+03  0.25658427175E+03  0.90595166583E+02 0.  0.
    9000005    2    3    3    0    0 -0.38801742386E+02 -0.17350899055E+02  0.77311337794E+02  0.88378403611E+02  0.52029187111E+01 0.  0.
         22    1    3    3    0    0  0.38801742386E+02  0.17350899055E+02  0.16274699742E+03  0.16820586814E+03  0.00000000000E+00 0.  1.
         22    1    4    4    0    0 -0.15376029453E+02 -0.43869951373E+01  0.31168172280E+02  0.35030315033E+02  0.00000000000E+00 0.  1.
         22    1    4    4    0    0 -0.23425712933E+02 -0.12963903918E+02  0.46143165514E+02  0.53348088578E+02  0.00000000000E+00 0.  1.
<mgrwt>
<rscale>  0 0.90595167E+02</rscale>
<asrwt>0</asrwt>
<pdfrwt beam="2">  1        1 0.12712262E-02 0.90595167E+02</pdfrwt>
<pdfrwt beam="1">  1       -1 0.38203268E-01 0.90595167E+02</pdfrwt>
<totfact> 0.66005815E+04</totfact>
</mgrwt>
</event>
<event>
 7    1  0.3565607E-009  0.9422073E+02  0.7818608E-02  0.1292941E+00
          1   -1    0    0  501    0  0.00000000000E+00  0.00000000000E+00  0.45863182817E+01  0.45863210510E+01  0.50400000000E-02 0. -1.
         -1   -1    0    0    0  501 -0.00000000000E+00 -0.00000000000E+00 -0.48391449235E+03  0.48391449237E+03  0.50400000000E-02 0.  1.
         23    2    1    2    0    0  0.00000000000E+00  0.00000000000E+00 -0.47932817406E+03  0.48850081342E+03  0.94220731601E+02 0.  0.
    9000005    2    3    3    0    0 -0.27198896475E+02 -0.31676895388E+02 -0.34717073907E+03  0.34990502238E+03  0.12759190756E+02 0.  0.
         22    1    3    3    0    0  0.27198896475E+02  0.31676895388E+02 -0.13215743499E+03  0.13859579104E+03  0.00000000000E+00 0. -1.
         22    1    4    4    0    0 -0.24079943668E+02 -0.20534788926E+02 -0.23058965408E+03  0.23275117575E+03  0.00000000000E+00 0.  1.
         22    1    4    4    0    0 -0.31189528077E+01 -0.11142106462E+02 -0.11658108500E+03  0.11715384664E+03  0.00000000000E+00 0.  1.
<mgrwt>
<rscale>  0 0.94220732E+02</rscale>
<asrwt>0</asrwt>
<pdfrwt beam="1">  1        1 0.70558802E-03 0.94220732E+02</pdfrwt>
<pdfrwt beam="2">  1       -1 0.74448343E-01 0.94220732E+02</pdfrwt>
<totfact> 0.44020672E+04</totfact>
</mgrwt>
</event>
<event>
 6    1  0.3619521E-009  0.2758921E+03  0.7818608E-02  0.1097954E+00
          1   -1    0    0  501    0  0.00000000000E+00  0.00000000000E+00  0.17346948207E+04  0.17346948207E+04  0.50400000000E-02 0. -1.
         -1   -1    0    0    0  501 -0.00000000000E+00 -0.00000000000E+00 -0.10969719974E+02  0.10969721132E+02  0.50400000000E-02 0.  1.
    9000005    2    1    2    0    0  0.75509320376E+02 -0.79580422965E+02  0.13899076084E+04  0.13942832398E+04  0.12161083270E+02 0.  0.
         22    1    1    2    0    0 -0.75509320376E+02  0.79580422965E+02  0.33381749236E+03  0.35138130199E+03  0.00000000000E+00 0.  1.
         22    1    3    3    0    0  0.63641715018E+02 -0.72794098072E+02  0.12107480621E+04  0.12146028645E+04  0.00000000000E+00 0.  1.
         22    1    3    3    0    0  0.11867605358E+02 -0.67863248925E+01  0.17915954626E+03  0.17968037533E+03  0.00000000000E+00 0.  1.
<mgrwt>
<rscale>  0 0.27589213E+03</rscale>
<asrwt>0</asrwt>
<pdfrwt beam="1">  1        1 0.26687616E+00 0.27589213E+03</pdfrwt>
<pdfrwt beam="2">  1       -1 0.16876491E-02 0.27589213E+03</pdfrwt>
<totfact> 0.44106445E+03</totfact>
</mgrwt>
</event>
<event>
 7    1  0.3565607E-009  0.9056107E+02  0.7818608E-02  0.1301499E+00
          1   -1    0    0  501    0  0.00000000000E+00  0.00000000000E+00  0.74364505093E+02  0.74364505264E+02  0.50400000000E-02 0. -1.
         -1   -1    0    0    0  501 -0.00000000000E+00 -0.00000000000E+00 -0.27571312368E+02  0.27571312828E+02  0.50400000000E-02 0.  1.
         23    2    1    2    0    0  0.00000000000E+00  0.00000000000E+00  0.46793192725E+02  0.10193581809E+03  0.90561074003E+02 0.  0.
    9000005    2    3    3    0    0  0.43176170878E+01 -0.32956961950E+02  0.57841170838E+02  0.66909242771E+02  0.51422335676E+01 0.  0.
         22    1    3    3    0    0 -0.43176170878E+01  0.32956961950E+02 -0.11047978113E+02  0.35026575320E+02  0.00000000000E+00 0.  1.
         22    1    4    4    0    0  0.29007054713E+01 -0.24879889364E+02  0.38872191516E+02  0.46243596965E+02  0.00000000000E+00 0.  1.
         22    1    4    4    0    0  0.14169116164E+01 -0.80770725858E+01  0.18968979321E+02  0.20665645806E+02  0.00000000000E+00 0.  1.
<mgrwt>
<rscale>  0 0.90561074E+02</rscale>
<asrwt>0</asrwt>
<pdfrwt beam="1">  1        1 0.11440693E-01 0.90561074E+02</pdfrwt>
<pdfrwt beam="2">  1       -1 0.42417405E-02 0.90561074E+02</pdfrwt>
<totfact> 0.10146985E+05</totfact>
</mgrwt>
</event>
<event>
 7    1  0.3565607E-009  0.9174069E+02  0.7818608E-02  0.1298690E+00
         -1   -1    0    0    0  501 -0.00000000000E+00  0.00000000000E+00  0.21373626416E+01  0.21373685839E+01  0.50400000000E-02 0.  1.
          1   -1    0    0  501    0  0.00000000000E+00 -0.00000000000E+00 -0.98443075919E+03  0.98443075920E+03  0.50400000000E-02 0. -1.
         23    2    1    2    0    0 -0.88817841970E-15  0.00000000000E+00 -0.98229339655E+03  0.98656812779E+03  0.91740688150E+02 0.  0.
    9000005    2    3    3    0    0 -0.41963517008E+01  0.23683205022E+02 -0.90910454676E+03  0.90952845423E+03  0.13871861990E+02 0.  0.
         22    1    3    3    0    0  0.41963517008E+01 -0.23683205022E+02 -0.73188849792E+02  0.77039673556E+02  0.00000000000E+00 0.  1.
         22    1    4    4    0    0 -0.43701462942E+01  0.29570409532E+01 -0.85200504697E+02  0.85363740959E+02  0.00000000000E+00 0.  1.
         22    1    4    4    0    0  0.17379459340E+00  0.20726164069E+02 -0.82390404206E+03  0.82416471327E+03  0.00000000000E+00 0.  1.
<mgrwt>
<rscale>  0 0.91740688E+02</rscale>
<asrwt>0</asrwt>
<pdfrwt beam="2">  1        1 0.15145052E+00 0.91740688E+02</pdfrwt>
<pdfrwt beam="1">  1       -1 0.32882627E-03 0.91740688E+02</pdfrwt>
<totfact> 0.13435952E+05</totfact>
</mgrwt>
</event>
<event>
 7    1  0.3565607E-009  0.9310208E+02  0.7818608E-02  0.1295509E+00
         -1   -1    0    0    0  501 -0.00000000000E+00  0.00000000000E+00  0.14874035198E+03  0.14874035206E+03  0.50400000000E-02 0.  1.
          1   -1    0    0  501    0  0.00000000000E+00 -0.00000000000E+00 -0.14569005884E+02  0.14569006756E+02  0.50400000000E-02 0. -1.
         23    2    1    2    0    0  0.00000000000E+00  0.35527136788E-14  0.13417134609E+03  0.16330935882E+03  0.93102076052E+02 0.  0.
    9000005    2    3    3    0    0  0.31283124671E+01 -0.27761003045E+02  0.45651937054E+01  0.30726500327E+02  0.11950615039E+02 0.  0.
         22    1    3    3    0    0 -0.31283124671E+01  0.27761003045E+02  0.12960615239E+03  0.13258285849E+03  0.00000000000E+00 0.  1.
         22    1    4    4    0    0  0.55996216754E+01 -0.25964466666E+02  0.18277379111E+01  0.26624235539E+02  0.00000000000E+00 0.  1.
         22    1    4    4    0    0 -0.24713092083E+01 -0.17965363791E+01  0.27374557943E+01  0.41022647879E+01  0.00000000000E+00 0.  1.
<mgrwt>
<rscale>  0 0.93102076E+02</rscale>
<asrwt>0</asrwt>
<pdfrwt beam="2">  1        1 0.22413856E-02 0.93102076E+02</pdfrwt>
<pdfrwt beam="1">  1       -1 0.22883131E-01 0.93102076E+02</pdfrwt>
<totfact> 0.70975184E+04</totfact>
</mgrwt>
</event>
<event>
 7    1  0.3565607E-009  0.9004898E+02  0.7818608E-02  0.1302733E+00
         -1   -1    0    0    0  501 -0.00000000000E+00  0.00000000000E+00  0.27549991018E+02  0.27549991479E+02  0.50400000000E-02 0.  1.
          1   -1    0    0  501    0  0.00000000000E+00 -0.00000000000E+00 -0.73582765915E+02  0.73582766088E+02  0.50400000000E-02 0. -1.
         23    2    1    2    0    0  0.00000000000E+00  0.00000000000E+00 -0.46032774897E+02  0.10113275757E+03  0.90048977164E+02 0.  0.
    9000005    2    3    3    0    0 -0.70171208501E+01 -0.10405604254E+02 -0.71011809174E+02  0.73177995212E+02  0.12442883756E+02 0.  0.
         22    1    3    3    0    0  0.70171208501E+01  0.10405604254E+02  0.24979034276E+02  0.27954762355E+02  0.00000000000E+00 0.  1.
         22    1    4    4    0    0 -0.41733732866E+01 -0.13031513217E+02 -0.58613115859E+02  0.60189157927E+02  0.00000000000E+00 0. -1.
         22    1    4    4    0    0 -0.28437475635E+01  0.26259089626E+01 -0.12398693315E+02  0.12988837284E+02  0.00000000000E+00 0. -1.
<mgrwt>
<rscale>  0 0.90048977E+02</rscale>
<asrwt>0</asrwt>
<pdfrwt beam="2">  1        1 0.11320425E-01 0.90048977E+02</pdfrwt>
<pdfrwt beam="1">  1       -1 0.42384602E-02 0.90048977E+02</pdfrwt>
<totfact> 0.10289382E+05</totfact>
</mgrwt>
</event>
<event>
 7    1  0.3565607E-009  0.9141260E+02  0.7818608E-02  0.1299466E+00
         -1   -1    0    0    0  501 -0.00000000000E+00  0.00000000000E+00  0.69130995654E+02  0.69130995838E+02  0.50400000000E-02 0.  1.
          1   -1    0    0  501    0  0.00000000000E+00 -0.00000000000E+00 -0.30218948887E+02  0.30218949308E+02  0.50400000000E-02 0. -1.
         23    2    1    2    0    0 -0.88817841970E-15 -0.35527136788E-14  0.38912046767E+02  0.99349945145E+02  0.91412604256E+02 0.  0.
    9000005    2    3    3    0    0  0.58618160438E+01  0.29074483606E+02 -0.16942413895E+02  0.36109078136E+02  0.11710407804E+02 0.  0.
         22    1    3    3    0    0 -0.58618160438E+01 -0.29074483606E+02  0.55854460662E+02  0.63240867010E+02  0.00000000000E+00 0.  1.
         22    1    4    4    0    0  0.54388638774E+01  0.44708167672E+01 -0.56838147734E+01  0.90484912125E+01  0.00000000000E+00 0. -1.
         22    1    4    4    0    0  0.42295216641E+00  0.24603666839E+02 -0.11258599122E+02  0.27060586923E+02  0.00000000000E+00 0. -1.
<mgrwt>
<rscale>  0 0.91412604E+02</rscale>
<asrwt>0</asrwt>
<pdfrwt beam="2">  1        1 0.46490692E-02 0.91412604E+02</pdfrwt>
<pdfrwt beam="1">  1       -1 0.10635538E-01 0.91412604E+02</pdfrwt>
<totfact> 0.86144612E+04</totfact>
</mgrwt>
</event>
<event>
 7    1  0.3565607E-009  0.9061969E+02  0.7818608E-02  0.1301358E+00
          1   -1    0    0  501    0  0.00000000000E+00  0.00000000000E+00  0.11973313327E+02  0.11973314388E+02  0.50400000000E-02 0. -1.
         -1   -1    0    0    0  501 -0.00000000000E+00 -0.00000000000E+00 -0.17146312734E+03  0.17146312741E+03  0.50400000000E-02 0.  1.
         23    2    1    2    0    0  0.00000000000E+00 -0.22204460493E-15 -0.15948981401E+03  0.18343644180E+03  0.90619685538E+02 0.  0.
    9000005    2    3    3    0    0 -0.42171793959E+02  0.13392838190E+01 -0.10758447358E+03  0.11654534933E+03  0.15104489653E+02 0.  0.
         22    1    3    3    0    0  0.42171793959E+02 -0.13392838190E+01 -0.51905340431E+02  0.66891092472E+02  0.00000000000E+00 0. -1.
         22    1    4    4    0    0 -0.19477016143E+01 -0.18835073098E+01 -0.16187038330E+01  0.31561596068E+01  0.00000000000E+00 0. -1.
         22    1    4    4    0    0 -0.40224092344E+02  0.32227911289E+01 -0.10596576975E+03  0.11338918972E+03  0.00000000000E+00 0. -1.
<mgrwt>
<rscale>  0 0.90619686E+02</rscale>
<asrwt>0</asrwt>
<pdfrwt beam="1">  1        1 0.18420484E-02 0.90619686E+02</pdfrwt>
<pdfrwt beam="2">  1       -1 0.26378941E-01 0.90619686E+02</pdfrwt>
<totfact> 0.73542021E+04</totfact>
</mgrwt>
</event>
<event>
 7    1  0.3565607E-009  0.9216659E+02  0.7818608E-02  0.1297688E+00
          1   -1    0    0  501    0  0.00000000000E+00  0.00000000000E+00  0.70804855292E+02  0.70804855472E+02  0.50400000000E-02 0. -1.
         -1   -1    0    0    0  501 -0.00000000000E+00 -0.00000000000E+00 -0.29993284476E+02  0.29993284900E+02  0.50400000000E-02 0.  1.
         23    2    1    2    0    0  0.00000000000E+00  0.00000000000E+00  0.40811570816E+02  0.10079814037E+03  0.92166592591E+02 0.  0.
    9000005    2    3    3    0    0  0.21282425858E+02  0.40540531568E+02  0.20828051236E+02  0.50839983830E+02  0.73769836231E+01 0.  0.
         22    1    3    3    0    0 -0.21282425858E+02 -0.40540531568E+02  0.19983519580E+02  0.49958156541E+02  0.00000000000E+00 0.  1.
         22    1    4    4    0    0  0.21874897322E+02  0.39906025263E+02  0.20490746380E+02  0.49908643263E+02  0.00000000000E+00 0.  1.
         22    1    4    4    0    0 -0.59247146408E+00  0.63450630505E+00  0.33730485659E+00  0.93134056777E+00  0.00000000000E+00 0.  1.
<mgrwt>
<rscale>  0 0.92166593E+02</rscale>
<asrwt>0</asrwt>
<pdfrwt beam="1">  1        1 0.10893055E-01 0.92166593E+02</pdfrwt>
<pdfrwt beam="2">  1       -1 0.46143516E-02 0.92166593E+02</pdfrwt>
<totfact> 0.95937814E+04</totfact>
</mgrwt>
</event>
<event>
 7    1  0.3565607E-009  0.9035085E+02  0.7818608E-02  0.1302004E+00
          1   -1    0    0  501    0  0.00000000000E+00  0.00000000000E+00  0.58962650131E+02  0.58962650346E+02  0.50400000000E-02 0. -1.
         -1   -1    0    0    0  501 -0.00000000000E+00 -0.00000000000E+00 -0.34612067054E+02  0.34612067421E+02  0.50400000000E-02 0.  1.
         23    2    1    2    0    0  0.00000000000E+00  0.00000000000E+00  0.24350583077E+02  0.93574717768E+02  0.90350854502E+02 0.  0.
    9000005    2    3    3    0    0  0.21192155562E+02  0.26012575932E+02 -0.18096369176E+02  0.39468291906E+02  0.10222813929E+02 0.  0.
         22    1    3    3    0    0 -0.21192155562E+02 -0.26012575932E+02  0.42446952253E+02  0.54106425862E+02  0.00000000000E+00 0. -1.
         22    1    4    4    0    0  0.10519823309E+02  0.20228034129E+02 -0.13441589504E+02  0.26467269893E+02  0.00000000000E+00 0. -1.
         22    1    4    4    0    0  0.10672332253E+02  0.57845418030E+01 -0.46547796722E+01  0.13001022013E+02  0.00000000000E+00 0. -1.
<mgrwt>
<rscale>  0 0.90350855E+02</rscale>
<asrwt>0</asrwt>
<pdfrwt beam="1">  1        1 0.90711769E-02 0.90350855E+02</pdfrwt>
<pdfrwt beam="2">  1       -1 0.53249335E-02 0.90350855E+02</pdfrwt>
<totfact> 0.98572925E+04</totfact>
</mgrwt>
</event>
<event>
 6    1  0.8955188E-009  0.1159453E+04  0.7818608E-02  0.9149106E-01
         -1   -1    0    0    0  501 -0.00000000000E+00  0.00000000000E+00  0.66411246315E+03  0.66411246317E+03  0.50400000000E-02 0.  1.
          1   -1    0    0  501    0  0.00000000000E+00 -0.00000000000E+00 -0.50606344601E+03  0.50606344603E+03  0.50400000000E-02 0. -1.
    9000005    2    1    2    0    0 -0.27670922595E+03 -0.61950024172E+02  0.58925829167E+03  0.65408750625E+03  0.14118438757E+02 0.  0.
         22    1    1    2    0    0  0.27670922595E+03  0.61950024172E+02 -0.43120927453E+03  0.51608840295E+03  0.00000000000E+00 0. -1.
         22    1    3    3    0    0 -0.46658685718E+02 -0.81039624681E+01  0.10971973673E+03  0.11950367270E+03  0.00000000000E+00 0. -1.
         22    1    3    3    0    0 -0.23005054023E+03 -0.53846061704E+02  0.47953855494E+03  0.53458383356E+03  0.00000000000E+00 0. -1.
<mgrwt>
<rscale>  0 0.11594534E+04</rscale>
<asrwt>0</asrwt>
<pdfrwt beam="2">  1        1 0.77855915E-01 0.11594534E+04</pdfrwt>
<pdfrwt beam="1">  1       -1 0.10217115E+00 0.11594534E+04</pdfrwt>
<totfact> 0.39265748E+01</totfact>
</mgrwt>
</event>
<event>
 7    1  0.3565607E-009  0.9502310E+02  0.7818608E-02  0.1291124E+00
          1   -1    0    0  501    0  0.00000000000E+00  0.00000000000E+00  0.27844743643E+03  0.27844743647E+03  0.50400000000E-02 0. -1.
         -1   -1    0    0    0  501 -0.00000000000E+00 -0.00000000000E+00 -0.81069065753E+01  0.81069081420E+01  0.50400000000E-02 0.  1.
         23    2    1    2    0    0  0.00000000000E+00  0.00000000000E+00  0.27034052985E+03  0.28655434462E+03  0.95023104228E+02 0.  0.
    9000005    2    3    3    0    0  0.18561867421E+02  0.39549388589E+02  0.90004482211E+02  0.10100169134E+03  0.13850551425E+02 0.  0.
         22    1    3    3    0    0 -0.18561867421E+02 -0.39549388589E+02  0.18033604764E+03  0.18555265328E+03  0.00000000000E+00 0. -1.
         22    1    4    4    0    0  0.23861580211E+01  0.21259447829E+02  0.40475356671E+02  0.45781135522E+02  0.00000000000E+00 0.  1.
         22    1    4    4    0    0  0.16175709400E+02  0.18289940760E+02  0.49529125540E+02  0.55220555813E+02  0.00000000000E+00 0.  1.
<mgrwt>
<rscale>  0 0.95023104E+02</rscale>
<asrwt>0</asrwt>
<pdfrwt beam="1">  1        1 0.42838063E-01 0.95023104E+02</pdfrwt>
<pdfrwt beam="2">  1       -1 0.12472166E-02 0.95023104E+02</pdfrwt>
<totfact> 0.11308327E+05</totfact>
</mgrwt>
</event>
<event>
 7    1  0.3565607E-009  0.9076806E+02  0.7818608E-02  0.1301002E+00
          1   -1    0    0  501    0  0.00000000000E+00  0.00000000000E+00  0.47746528544E+01  0.47746555145E+01  0.50400000000E-02 0. -1.
         -1   -1    0    0    0  501 -0.00000000000E+00 -0.00000000000E+00 -0.43138412643E+03  0.43138412646E+03  0.50400000000E-02 0.  1.
         23    2    1    2    0    0 -0.22204460493E-15  0.00000000000E+00 -0.42660947357E+03  0.43615878197E+03  0.90768056873E+02 0.  0.
    9000005    2    3    3    0    0 -0.13892828003E+01 -0.37520702868E+02 -0.33480866806E+03  0.33697651973E+03  0.68262281930E+01 0.  0.
         22    1    3    3    0    0  0.13892828003E+01  0.37520702868E+02 -0.91800805517E+02  0.99182262245E+02  0.00000000000E+00 0. -1.
         22    1    4    4    0    0  0.11607809369E+01 -0.30710246218E+02 -0.25782973987E+03  0.25965485051E+03  0.00000000000E+00 0.  1.
         22    1    4    4    0    0 -0.25500637372E+01 -0.68104566494E+01 -0.76978928189E+02  0.77321669213E+02  0.00000000000E+00 0.  1.
<mgrwt>
<rscale>  0 0.90768057E+02</rscale>
<asrwt>0</asrwt>
<pdfrwt beam="1">  1        1 0.73456252E-03 0.90768057E+02</pdfrwt>
<pdfrwt beam="2">  1       -1 0.66366758E-01 0.90768057E+02</pdfrwt>
<totfact> 0.51834802E+04</totfact>
</mgrwt>
</event>
<event>
 7    1  0.3565607E-009  0.9520788E+02  0.7818608E-02  0.1290709E+00
         -1   -1    0    0    0  501 -0.00000000000E+00  0.00000000000E+00  0.90965096888E+02  0.90965097028E+02  0.50400000000E-02 0.  1.
          1   -1    0    0  501    0  0.00000000000E+00 -0.00000000000E+00 -0.24912139149E+02  0.24912139659E+02  0.50400000000E-02 0. -1.
         23    2    1    2    0    0  0.00000000000E+00  0.00000000000E+00  0.66052957739E+02  0.11587723669E+03  0.95207881795E+02 0.  0.
    9000005    2    3    3    0    0  0.20696462630E+01 -0.40108182016E+02  0.62346460859E+02  0.75545018555E+02  0.14388152992E+02 0.  0.
         22    1    3    3    0    0 -0.20696462630E+01  0.40108182016E+02  0.37064968807E+01  0.40332218132E+02  0.00000000000E+00 0. -1.
         22    1    4    4    0    0  0.54590560573E+01 -0.38404947749E+02  0.55405172309E+02  0.67634861006E+02  0.00000000000E+00 0. -1.
         22    1    4    4    0    0 -0.33894097943E+01 -0.17032342674E+01  0.69412885495E+01  0.79101575491E+01  0.00000000000E+00 0. -1.
<mgrwt>
<rscale>  0 0.95207882E+02</rscale>
<asrwt>0</asrwt>
<pdfrwt beam="2">  1        1 0.38326369E-02 0.95207882E+02</pdfrwt>
<pdfrwt beam="1">  1       -1 0.13994630E-01 0.95207882E+02</pdfrwt>
<totfact> 0.74065079E+04</totfact>
</mgrwt>
</event>
<event>
 7    1  0.3565607E-009  0.9153291E+02  0.7818608E-02  0.1299181E+00
          1   -1    0    0  501    0  0.00000000000E+00  0.00000000000E+00  0.46649740965E+03  0.46649740968E+03  0.50400000000E-02 0. -1.
         -1   -1    0    0    0  501 -0.00000000000E+00 -0.00000000000E+00 -0.44899880288E+01  0.44899908575E+01  0.50400000000E-02 0.  1.
         23    2    1    2    0    0  0.88817841970E-15 -0.71054273576E-14  0.46200742162E+03  0.47098740054E+03  0.91532911182E+02 0.  0.
    9000005    2    3    3    0    0  0.78111035952E+01 -0.42771728810E+02  0.29410422248E+03  0.29754600292E+03  0.12078743653E+02 0.  0.
         22    1    3    3    0    0 -0.78111035952E+01  0.42771728810E+02  0.16790319915E+03  0.17344139762E+03  0.00000000000E+00 0.  1.
         22    1    4    4    0    0  0.34897035862E+01 -0.79857902124E+01  0.34398048784E+02  0.35484878985E+02  0.00000000000E+00 0. -1.
         22    1    4    4    0    0  0.43214000090E+01 -0.34785938598E+02  0.25970617369E+03  0.26206112393E+03  0.00000000000E+00 0. -1.
<mgrwt>
<rscale>  0 0.91532911E+02</rscale>
<asrwt>0</asrwt>
<pdfrwt beam="1">  1        1 0.71768853E-01 0.91532911E+02</pdfrwt>
<pdfrwt beam="2">  1       -1 0.69076741E-03 0.91532911E+02</pdfrwt>
<totfact> 0.13662609E+05</totfact>
</mgrwt>
</event>
<event>
 7    1  0.3565607E-009  0.9174890E+02  0.7818608E-02  0.1298671E+00
         -1   -1    0    0    0  501 -0.00000000000E+00  0.00000000000E+00  0.13213679291E+03  0.13213679300E+03  0.50400000000E-02 0.  1.
          1   -1    0    0  501    0  0.00000000000E+00 -0.00000000000E+00 -0.15926412471E+02  0.15926413268E+02  0.50400000000E-02 0. -1.
         23    2    1    2    0    0  0.00000000000E+00  0.00000000000E+00  0.11621038043E+03  0.14806320627E+03  0.91748899340E+02 0.  0.
    9000005    2    3    3    0    0 -0.38862590898E+02  0.33309590268E+01  0.97042461673E+02  0.10460281776E+03  0.17646125106E+01 0.  0.
         22    1    3    3    0    0  0.38862590898E+02 -0.33309590268E+01  0.19167918762E+02  0.43460388505E+02  0.00000000000E+00 0. -1.
         22    1    4    4    0    0 -0.70128145199E+01  0.12074223101E+01  0.18545499370E+02  0.19863861231E+02  0.00000000000E+00 0.  1.
         22    1    4    4    0    0 -0.31849776378E+02  0.21235367167E+01  0.78496962303E+02  0.84738956533E+02  0.00000000000E+00 0.  1.
<mgrwt>
<rscale>  0 0.91748899E+02</rscale>
<asrwt>0</asrwt>
<pdfrwt beam="2">  1        1 0.24502174E-02 0.91748899E+02</pdfrwt>
<pdfrwt beam="1">  1       -1 0.20328737E-01 0.91748899E+02</pdfrwt>
<totfact> 0.75716084E+04</totfact>
</mgrwt>
</event>
<event>
 7    1  0.3565607E-009  0.9122455E+02  0.7818608E-02  0.1299913E+00
          1   -1    0    0  501    0  0.00000000000E+00  0.00000000000E+00  0.14251795770E+03  0.14251795779E+03  0.50400000000E-02 0. -1.
         -1   -1    0    0    0  501 -0.00000000000E+00 -0.00000000000E+00 -0.14598016782E+02  0.14598017652E+02  0.50400000000E-02 0.  1.
         23    2    1    2    0    0  0.00000000000E+00  0.00000000000E+00  0.12791994092E+03  0.15711597544E+03  0.91224549624E+02 0.  0.
    9000005    2    3    3    0    0  0.11746593834E+02 -0.38295049413E+02  0.99501890366E+02  0.10800305582E+03  0.12630938378E+02 0.  0.
         22    1    3    3    0    0 -0.11746593834E+02  0.38295049413E+02  0.28418050553E+02  0.49112919619E+02  0.00000000000E+00 0.  1.
         22    1    4    4    0    0  0.14012590309E+02 -0.30451404854E+02  0.84825646389E+02  0.91208722336E+02  0.00000000000E+00 0.  1.
         22    1    4    4    0    0 -0.22659964755E+01 -0.78436445588E+01  0.14676243976E+02  0.16794333486E+02  0.00000000000E+00 0.  1.
<mgrwt>
<rscale>  0 0.91224550E+02</rscale>
<asrwt>0</asrwt>
<pdfrwt beam="1">  1        1 0.21925840E-01 0.91224550E+02</pdfrwt>
<pdfrwt beam="2">  1       -1 0.22458488E-02 0.91224550E+02</pdfrwt>
<totfact> 0.11093167E+05</totfact>
</mgrwt>
</event>
<event>
 7    1  0.3565607E-009  0.9385304E+02  0.7818608E-02  0.1293780E+00
          1   -1    0    0  501    0  0.00000000000E+00  0.00000000000E+00  0.60781882176E+02  0.60781882385E+02  0.50400000000E-02 0. -1.
         -1   -1    0    0    0  501 -0.00000000000E+00 -0.00000000000E+00 -0.36229520671E+02  0.36229521022E+02  0.50400000000E-02 0.  1.
         23    2    1    2    0    0  0.00000000000E+00  0.00000000000E+00  0.24552361504E+02  0.97011403407E+02  0.93853044359E+02 0.  0.
    9000005    2    3    3    0    0  0.83774126549E+01  0.42245056331E+02 -0.48137646558E+01  0.44884680962E+02  0.11689158554E+02 0.  0.
         22    1    3    3    0    0 -0.83774126549E+01 -0.42245056331E+02  0.29366126160E+02  0.52126722445E+02  0.00000000000E+00 0.  1.
         22    1    4    4    0    0  0.93880901715E+01  0.41909821396E+02 -0.33559168338E+01  0.43079363323E+02  0.00000000000E+00 0.  1.
         22    1    4    4    0    0 -0.10106775166E+01  0.33523493455E+00 -0.14578478221E+01  0.18053176386E+01  0.00000000000E+00 0.  1.
<mgrwt>
<rscale>  0 0.93853044E+02</rscale>
<asrwt>0</asrwt>
<pdfrwt beam="1">  1        1 0.93510588E-02 0.93853044E+02</pdfrwt>
<pdfrwt beam="2">  1       -1 0.55737725E-02 0.93853044E+02</pdfrwt>
<totfact> 0.89096307E+04</totfact>
</mgrwt>
</event>
<event>
 7    1  0.3565607E-009  0.9070872E+02  0.7818608E-02  0.1301144E+00
         -1   -1    0    0    0  501 -0.00000000000E+00  0.00000000000E+00  0.36069238936E+01  0.36069274148E+01  0.50400000000E-02 0.  1.
          1   -1    0    0  501    0  0.00000000000E+00 -0.00000000000E+00 -0.57029680252E+03  0.57029680254E+03  0.50400000000E-02 0. -1.
         23    2    1    2    0    0  0.00000000000E+00 -0.17763568394E-14 -0.56668987863E+03  0.57390372996E+03  0.90708724614E+02 0.  0.
    9000005    2    3    3    0    0  0.20392674196E+02  0.14379147327E+02 -0.52139234803E+03  0.52218828432E+03  0.14422297477E+02 0.  0.
         22    1    3    3    0    0 -0.20392674196E+02 -0.14379147327E+02 -0.45297530600E+02  0.51715445635E+02  0.00000000000E+00 0.  1.
         22    1    4    4    0    0  0.20680201259E+02  0.76558964444E+01 -0.38756018002E+03  0.38818703818E+03  0.00000000000E+00 0. -1.
         22    1    4    4    0    0 -0.28752706244E+00  0.67232508824E+01 -0.13383216801E+03  0.13400124614E+03  0.00000000000E+00 0. -1.
<mgrwt>
<rscale>  0 0.90708725E+02</rscale>
<asrwt>0</asrwt>
<pdfrwt beam="2">  1        1 0.87737898E-01 0.90708725E+02</pdfrwt>
<pdfrwt beam="1">  1       -1 0.55491209E-03 0.90708725E+02</pdfrwt>
<totfact> 0.14302632E+05</totfact>
</mgrwt>
</event>
<event>
 6    1  0.3565607E-009  0.3475624E+03  0.7818608E-02  0.1063620E+00
         -1   -1    0    0    0  501 -0.00000000000E+00  0.00000000000E+00  0.26522813042E+03  0.26522813047E+03  0.50400000000E-02 0.  1.
          1   -1    0    0  501    0  0.00000000000E+00 -0.00000000000E+00 -0.11386387847E+03  0.11386387858E+03  0.50400000000E-02 0. -1.
    9000005    2    1    2    0    0 -0.58828049229E+02 -0.23307196804E+02 -0.10036357519E+03  0.11953302970E+03  0.14537302608E+02 0.  0.
         22    1    1    2    0    0  0.58828049229E+02  0.23307196804E+02  0.25172782714E+03  0.25955897934E+03  0.00000000000E+00 0.  1.
         22    1    3    3    0    0 -0.57433455342E+02 -0.23492012708E+02 -0.91487070262E+02  0.11054573931E+03  0.00000000000E+00 0. -1.
         22    1    3    3    0    0 -0.13945938875E+01  0.18481590421E+00 -0.88765049248E+01  0.89872903987E+01  0.00000000000E+00 0. -1.
<mgrwt>
<rscale>  0 0.34756239E+03</rscale>
<asrwt>0</asrwt>
<pdfrwt beam="2">  1        1 0.17517520E-01 0.34756239E+03</pdfrwt>
<pdfrwt beam="1">  1       -1 0.40804327E-01 0.34756239E+03</pdfrwt>
<totfact> 0.18153189E+03</totfact>
</mgrwt>
</event>
<event>
 7    1  0.3565607E-009  0.9042615E+02  0.7818608E-02  0.1301823E+00
         -1   -1    0    0    0  501 -0.00000000000E+00  0.00000000000E+00  0.14903108415E+02  0.14903109267E+02  0.50400000000E-02 0.  1.
          1   -1    0    0  501    0  0.00000000000E+00 -0.00000000000E+00 -0.13716750444E+03  0.13716750453E+03  0.50400000000E-02 0. -1.
         23    2    1    2    0    0  0.35527136788E-14  0.00000000000E+00 -0.12226439603E+03  0.15207061380E+03  0.90426152446E+02 0.  0.
    9000005    2    3    3    0    0  0.16575967921E+02 -0.39623999101E+02 -0.43726320489E+02  0.62554954130E+02  0.12502286407E+02 0.  0.
         22    1    3    3    0    0 -0.16575967921E+02  0.39623999101E+02 -0.78538075537E+02  0.89515659671E+02  0.00000000000E+00 0.  1.
         22    1    4    4    0    0  0.45772654125E+01 -0.23426926297E+02 -0.29168181979E+02  0.37690251715E+02  0.00000000000E+00 0.  1.
         22    1    4    4    0    0  0.11998702508E+02 -0.16197072804E+02 -0.14558138510E+02  0.24864702415E+02  0.00000000000E+00 0.  1.
<mgrwt>
<rscale>  0 0.90426152E+02</rscale>
<asrwt>0</asrwt>
<pdfrwt beam="2">  1        1 0.21102692E-01 0.90426152E+02</pdfrwt>
<pdfrwt beam="1">  1       -1 0.22927861E-02 0.90426152E+02</pdfrwt>
<totfact> 0.11281273E+05</totfact>
</mgrwt>
</event>
<event>
 7    1  0.3565607E-009  0.8008480E+02  0.7818608E-02  0.1328811E+00
         -1   -1    0    0    0  501 -0.00000000000E+00  0.00000000000E+00  0.85230045789E+00  0.85231535954E+00  0.50400000000E-02 0.  1.
          1   -1    0    0  501    0  0.00000000000E+00 -0.00000000000E+00 -0.18812378790E+04  0.18812378790E+04  0.50400000000E-02 0. -1.
         23    2    1    2    0    0 -0.88817841970E-15  0.00000000000E+00 -0.18803855785E+04  0.18820901943E+04  0.80084803430E+02 0.  0.
    9000005    2    3    3    0    0  0.61482515282E+01 -0.16971340222E+02 -0.17757363257E+04  0.17758955923E+04  0.15486412808E+02 0.  0.
         22    1    3    3    0    0 -0.61482515282E+01  0.16971340222E+02 -0.10464925278E+03  0.10619460200E+03  0.00000000000E+00 0.  1.
         22    1    4    4    0    0  0.37573060196E+01 -0.13267291486E+02 -0.16811765694E+04  0.16812331177E+04  0.00000000000E+00 0.  1.
         22    1    4    4    0    0  0.23909455086E+01 -0.37040487366E+01 -0.94559756310E+02  0.94662474672E+02  0.00000000000E+00 0.  1.
<mgrwt>
<rscale>  0 0.80084803E+02</rscale>
<asrwt>0</asrwt>
<pdfrwt beam="2">  1        1 0.28941789E+00 0.80084803E+02</pdfrwt>
<pdfrwt beam="1">  1       -1 0.13112580E-03 0.80084803E+02</pdfrwt>
<totfact> 0.12245546E+05</totfact>
</mgrwt>
</event>
<event>
 7    1  0.3565607E-009  0.8722087E+02  0.7818608E-02  0.1309725E+00
          1   -1    0    0  501    0  0.00000000000E+00  0.00000000000E+00  0.11228522043E+02  0.11228523174E+02  0.50400000000E-02 0. -1.
         -1   -1    0    0    0  501 -0.00000000000E+00 -0.00000000000E+00 -0.16937849235E+03  0.16937849242E+03  0.50400000000E-02 0.  1.
         23    2    1    2    0    0  0.00000000000E+00  0.00000000000E+00 -0.15814997031E+03  0.18060701560E+03  0.87220874655E+02 0.  0.
    9000005    2    3    3    0    0 -0.90680169157E+01 -0.17690412358E+02 -0.15940588340E+03  0.16068825716E+03  0.39116116641E+01 0.  0.
         22    1    3    3    0    0  0.90680169157E+01  0.17690412358E+02  0.12559130918E+01  0.19918758442E+02  0.00000000000E+00 0. -1.
         22    1    4    4    0    0 -0.67777639817E+01 -0.11262674481E+02 -0.11712373795E+03  0.11785905104E+03  0.00000000000E+00 0. -1.
         22    1    4    4    0    0 -0.22902529340E+01 -0.64277378770E+01 -0.42282145452E+02  0.42829206119E+02  0.00000000000E+00 0. -1.
<mgrwt>
<rscale>  0 0.87220875E+02</rscale>
<asrwt>0</asrwt>
<pdfrwt beam="1">  1        1 0.17274651E-02 0.87220875E+02</pdfrwt>
<pdfrwt beam="2">  1       -1 0.26058228E-01 0.87220875E+02</pdfrwt>
<totfact> 0.81462756E+04</totfact>
</mgrwt>
</event>
<event>
 7    1  0.3565607E-009  0.9489505E+02  0.7818608E-02  0.1291413E+00
          1   -1    0    0  501    0  0.00000000000E+00  0.00000000000E+00  0.31952468357E+03  0.31952468361E+03  0.50400000000E-02 0. -1.
         -1   -1    0    0    0  501 -0.00000000000E+00 -0.00000000000E+00 -0.70456758784E+01  0.70456776810E+01  0.50400000000E-02 0.  1.
         23    2    1    2    0    0 -0.88817841970E-15  0.17763568394E-14  0.31247900770E+03  0.32657036130E+03  0.94895050586E+02 0.  0.
    9000005    2    3    3    0    0 -0.50882181438E+01  0.15559070058E+02  0.30906493644E+03  0.30984820511E+03  0.14724151847E+02 0.  0.
         22    1    3    3    0    0  0.50882181438E+01 -0.15559070058E+02  0.34140712545E+01  0.16722156185E+02  0.00000000000E+00 0.  1.
         22    1    4    4    0    0 -0.43577283331E+01  0.49811555676E+01  0.37722224791E+02  0.38298406628E+02  0.00000000000E+00 0.  1.
         22    1    4    4    0    0 -0.73048981073E+00  0.10577914490E+02  0.27134271165E+03  0.27154979848E+03  0.00000000000E+00 0.  1.
<mgrwt>
<rscale>  0 0.94895051E+02</rscale>
<asrwt>0</asrwt>
<pdfrwt beam="1">  1        1 0.49157630E-01 0.94895051E+02</pdfrwt>
<pdfrwt beam="2">  1       -1 0.10839506E-02 0.94895051E+02</pdfrwt>
<totfact> 0.11653472E+05</totfact>
</mgrwt>
</event>
<event>
 7    1  0.3565607E-009  0.8988877E+02  0.7818608E-02  0.1303121E+00
          1   -1    0    0  501    0  0.00000000000E+00  0.00000000000E+00  0.68045629325E+01  0.68045647990E+01  0.50400000000E-02 0. -1.
         -1   -1    0    0    0  501 -0.00000000000E+00 -0.00000000000E+00 -0.29685926376E+03  0.29685926381E+03  0.50400000000E-02 0.  1.
         23    2    1    2    0    0  0.00000000000E+00  0.00000000000E+00 -0.29005470083E+03  0.30366382860E+03  0.89888771985E+02 0.  0.
    9000005    2    3    3    0    0 -0.24763553960E+02 -0.30026232568E+02 -0.21871227893E+03  0.22239544970E+03  0.10481738700E+02 0.  0.
         22    1    3    3    0    0  0.24763553960E+02  0.30026232568E+02 -0.71342421904E+02  0.81268378907E+02  0.00000000000E+00 0. -1.
         22    1    4    4    0    0 -0.23584926925E+02 -0.28730568222E+02 -0.21594217889E+03  0.21911804798E+03  0.00000000000E+00 0.  1.
         22    1    4    4    0    0 -0.11786270355E+01 -0.12956643465E+01 -0.27701000392E+01  0.32774017170E+01  0.00000000000E+00 0.  1.
<mgrwt>
<rscale>  0 0.89888772E+02</rscale>
<asrwt>0</asrwt>
<pdfrwt beam="1">  1        1 0.10468562E-02 0.89888772E+02</pdfrwt>
<pdfrwt beam="2">  1       -1 0.45670646E-01 0.89888772E+02</pdfrwt>
<totfact> 0.63140583E+04</totfact>
</mgrwt>
</event>
<event>
 7    1  0.3565607E-009  0.9257903E+02  0.7818608E-02  0.1296724E+00
          1   -1    0    0  501    0  0.00000000000E+00  0.00000000000E+00  0.32520116988E+02  0.32520117378E+02  0.50400000000E-02 0. -1.
         -1   -1    0    0    0  501 -0.00000000000E+00 -0.00000000000E+00 -0.65889037865E+02  0.65889038058E+02  0.50400000000E-02 0.  1.
         23    2    1    2    0    0 -0.35527136788E-14  0.17763568394E-14 -0.33368920878E+02  0.98409155436E+02  0.92579031066E+02 0.  0.
    9000005    2    3    3    0    0 -0.25630252580E+02  0.15623661708E+02 -0.54082066099E+02  0.61939400331E+02  0.32574203532E+01 0.  0.
         22    1    3    3    0    0  0.25630252580E+02 -0.15623661708E+02  0.20713145221E+02  0.36469755105E+02  0.00000000000E+00 0. -1.
         22    1    4    4    0    0 -0.10225875277E+02  0.60338180041E+01 -0.18206473934E+02  0.21735942078E+02  0.00000000000E+00 0. -1.
         22    1    4    4    0    0 -0.15404377303E+02  0.95898437036E+01 -0.35875592164E+02  0.40203458253E+02  0.00000000000E+00 0. -1.
<mgrwt>
<rscale>  0 0.92579031E+02</rscale>
<asrwt>0</asrwt>
<pdfrwt beam="1">  1        1 0.50030950E-02 0.92579031E+02</pdfrwt>
<pdfrwt beam="2">  1       -1 0.10136775E-01 0.92579031E+02</pdfrwt>
<totfact> 0.84052063E+04</totfact>
</mgrwt>
</event>
<event>
 7    1  0.3565607E-009  0.8980990E+02  0.7818608E-02  0.1303313E+00
         -1   -1    0    0    0  501 -0.00000000000E+00  0.00000000000E+00  0.79415544421E+02  0.79415544581E+02  0.50400000000E-02 0.  1.
          1   -1    0    0  501    0  0.00000000000E+00 -0.00000000000E+00 -0.25391179839E+02  0.25391180339E+02  0.50400000000E-02 0. -1.
         23    2    1    2    0    0  0.00000000000E+00  0.00000000000E+00  0.54024364583E+02  0.10480672492E+03  0.89809897116E+02 0.  0.
    9000005    2    3    3    0    0 -0.81135076701E+01  0.40014195453E+02  0.48315483453E+02  0.63581051266E+02  0.64186676481E+01 0.  0.
         22    1    3    3    0    0  0.81135076701E+01 -0.40014195453E+02  0.57088811298E+01  0.41225673654E+02  0.00000000000E+00 0. -1.
         22    1    4    4    0    0 -0.64699822760E+01  0.26095845876E+02  0.35943947743E+02  0.44886759985E+02  0.00000000000E+00 0. -1.
         22    1    4    4    0    0 -0.16435253941E+01  0.13918349578E+02  0.12371535709E+02  0.18694291281E+02  0.00000000000E+00 0. -1.
<mgrwt>
<rscale>  0 0.89809897E+02</rscale>
<asrwt>0</asrwt>
<pdfrwt beam="2">  1        1 0.39063354E-02 0.89809897E+02</pdfrwt>
<pdfrwt beam="1">  1       -1 0.12217776E-01 0.89809897E+02</pdfrwt>
<totfact> 0.88092830E+04</totfact>
</mgrwt>
</event>
<event>
 7    1  0.3565607E-009  0.7730949E+02  0.7818608E-02  0.1336865E+00
          1   -1    0    0  501    0  0.00000000000E+00  0.00000000000E+00  0.87404484702E+02  0.87404484847E+02  0.50400000000E-02 0. -1.
         -1   -1    0    0    0  501 -0.00000000000E+00 -0.00000000000E+00 -0.17095111745E+02  0.17095112488E+02  0.50400000000E-02 0.  1.
         23    2    1    2    0    0  0.00000000000E+00  0.00000000000E+00  0.70309372957E+02  0.10449959733E+03  0.77309494356E+02 0.  0.
    9000005    2    3    3    0    0  0.21771354140E+02 -0.31119617904E+02  0.25801380804E+02  0.45989907154E+02  0.26339759022E+01 0.  0.
         22    1    3    3    0    0 -0.21771354140E+02  0.31119617904E+02  0.44507992153E+02  0.58509690181E+02  0.00000000000E+00 0.  1.
         22    1    4    4    0    0  0.40130707673E+01 -0.58810378814E+01  0.61148014780E+01  0.93852086104E+01  0.00000000000E+00 0.  1.
         22    1    4    4    0    0  0.17758283373E+02 -0.25238580022E+02  0.19686579326E+02  0.36604698544E+02  0.00000000000E+00 0.  1.
<mgrwt>
<rscale>  0 0.77309494E+02</rscale>
<asrwt>0</asrwt>
<pdfrwt beam="1">  1        1 0.13446844E-01 0.77309494E+02</pdfrwt>
<pdfrwt beam="2">  1       -1 0.26300173E-02 0.77309494E+02</pdfrwt>
<totfact> 0.15967672E+05</totfact>
</mgrwt>
</event>
<event>
 7    1  0.3565607E-009  0.9540870E+02  0.7818608E-02  0.1290258E+00
         -1   -1    0    0    0  501 -0.00000000000E+00  0.00000000000E+00  0.20338692325E+03  0.20338692332E+03  0.50400000000E-02 0.  1.
          1   -1    0    0  501    0  0.00000000000E+00 -0.00000000000E+00 -0.11189041378E+02  0.11189042513E+02  0.50400000000E-02 0. -1.
         23    2    1    2    0    0  0.88817841970E-15  0.00000000000E+00  0.19219788188E+03  0.21457596583E+03  0.95408696219E+02 0.  0.
    9000005    2    3    3    0    0  0.56104409054E+01  0.14600141225E+02  0.19720030762E+03  0.19815447277E+03  0.11514885393E+02 0.  0.
         22    1    3    3    0    0 -0.56104409054E+01 -0.14600141225E+02 -0.50024257392E+01  0.16421493057E+02  0.00000000000E+00 0. -1.
         22    1    4    4    0    0  0.84442084120E-01  0.13404913698E+02  0.15470877795E+03  0.15528845680E+03  0.00000000000E+00 0.  1.
         22    1    4    4    0    0  0.55259988213E+01  0.11952275265E+01  0.42491529666E+02  0.42866015971E+02  0.00000000000E+00 0.  1.
<mgrwt>
<rscale>  0 0.95408696E+02</rscale>
<asrwt>0</asrwt>
<pdfrwt beam="2">  1        1 0.17213912E-02 0.95408696E+02</pdfrwt>
<pdfrwt beam="1">  1       -1 0.31290294E-01 0.95408696E+02</pdfrwt>
<totfact> 0.61371144E+04</totfact>
</mgrwt>
</event>
<event>
 7    1  0.3565607E-009  0.8969654E+02  0.7818608E-02  0.1303588E+00
         -1   -1    0    0    0  501 -0.00000000000E+00  0.00000000000E+00  0.41485337836E+01  0.41485368451E+01  0.50400000000E-02 0.  1.
          1   -1    0    0  501    0  0.00000000000E+00 -0.00000000000E+00 -0.48483790497E+03  0.48483790500E+03  0.50400000000E-02 0. -1.
         23    2    1    2    0    0  0.00000000000E+00  0.00000000000E+00 -0.48068937119E+03  0.48898644185E+03  0.89696536907E+02 0.  0.
    9000005    2    3    3    0    0  0.20098975360E+02  0.35711627510E+02 -0.32917661703E+03  0.33202974774E+03  0.14395104643E+02 0.  0.
         22    1    3    3    0    0 -0.20098975360E+02 -0.35711627510E+02 -0.15151275416E+03  0.15695669410E+03  0.00000000000E+00 0.  1.
         22    1    4    4    0    0  0.16645252175E+01  0.44839218302E+01 -0.14452020401E+02  0.15222913415E+02  0.00000000000E+00 0.  1.
         22    1    4    4    0    0  0.18434450143E+02  0.31227705680E+02 -0.31472459663E+03  0.31680683433E+03  0.00000000000E+00 0.  1.
<mgrwt>
<rscale>  0 0.89696537E+02</rscale>
<asrwt>0</asrwt>
<pdfrwt beam="2">  1        1 0.74590402E-01 0.89696537E+02</pdfrwt>
<pdfrwt beam="1">  1       -1 0.63823659E-03 0.89696537E+02</pdfrwt>
<totfact> 0.14488785E+05</totfact>
</mgrwt>
</event>
<event>
 7    1  0.3565607E-009  0.8995807E+02  0.7818608E-02  0.1302953E+00
          1   -1    0    0  501    0  0.00000000000E+00  0.00000000000E+00  0.53754191879E+03  0.53754191882E+03  0.50400000000E-02 0. -1.
         -1   -1    0    0    0  501 -0.00000000000E+00 -0.00000000000E+00 -0.37636367073E+01  0.37636400819E+01  0.50400000000E-02 0.  1.
         23    2    1    2    0    0  0.00000000000E+00  0.35527136788E-14  0.53377828208E+03  0.54130555890E+03  0.89958066164E+02 0.  0.
    9000005    2    3    3    0    0 -0.55657671111E+01  0.28293882489E+02  0.47213264199E+03  0.47324891710E+03  0.14959423636E+02 0.  0.
         22    1    3    3    0    0  0.55657671111E+01 -0.28293882489E+02  0.61645640092E+02  0.68056641793E+02  0.00000000000E+00 0.  1.
         22    1    4    4    0    0 -0.56236645446E+01  0.24871172428E+01  0.61669679549E+02  0.61975484917E+02  0.00000000000E+00 0. -1.
         22    1    4    4    0    0  0.57897433545E-01  0.25806765246E+02  0.41046296244E+03  0.41127343219E+03  0.00000000000E+00 0. -1.
<mgrwt>
<rscale>  0 0.89958066E+02</rscale>
<asrwt>0</asrwt>
<pdfrwt beam="1">  1        1 0.82698731E-01 0.89958066E+02</pdfrwt>
<pdfrwt beam="2">  1       -1 0.57902147E-03 0.89958066E+02</pdfrwt>
<totfact> 0.14544623E+05</totfact>
</mgrwt>
</event>
<event>
 7    1  0.3565607E-009  0.9271989E+02  0.7818608E-02  0.1296396E+00
         -1   -1    0    0    0  501 -0.00000000000E+00  0.00000000000E+00  0.10916627523E+03  0.10916627535E+03  0.50400000000E-02 0.  1.
          1   -1    0    0  501    0  0.00000000000E+00 -0.00000000000E+00 -0.19687808042E+02  0.19687808687E+02  0.50400000000E-02 0. -1.
         23    2    1    2    0    0  0.00000000000E+00  0.00000000000E+00  0.89478467190E+02  0.12885408404E+03  0.92719894748E+02 0.  0.
    9000005    2    3    3    0    0  0.20053043414E+02 -0.12001134539E+02  0.10030588237E+03  0.10309782849E+03  0.46626624933E+01 0.  0.
         22    1    3    3    0    0 -0.20053043414E+02  0.12001134539E+02 -0.10827415176E+02  0.25756255547E+02  0.00000000000E+00 0. -1.
         22    1    4    4    0    0 -0.12618030601E+00 -0.14376735889E+00  0.14865492223E+00  0.24225773261E+00  0.00000000000E+00 0.  1.
         22    1    4    4    0    0  0.20179223720E+02 -0.11857367181E+02  0.10015722744E+03  0.10285557076E+03  0.00000000000E+00 0.  1.
<mgrwt>
<rscale>  0 0.92719895E+02</rscale>
<asrwt>0</asrwt>
<pdfrwt beam="2">  1        1 0.30288936E-02 0.92719895E+02</pdfrwt>
<pdfrwt beam="1">  1       -1 0.16794812E-01 0.92719895E+02</pdfrwt>
<totfact> 0.76630138E+04</totfact>
</mgrwt>
</event>
<event>
 7    1  0.3565607E-009  0.9025452E+02  0.7818608E-02  0.1302236E+00
         -1   -1    0    0    0  501 -0.00000000000E+00  0.00000000000E+00  0.90435218627E+03  0.90435218628E+03  0.50400000000E-02 0.  1.
          1   -1    0    0  501    0  0.00000000000E+00 -0.00000000000E+00 -0.22518519084E+01  0.22518575486E+01  0.50400000000E-02 0. -1.
         23    2    1    2    0    0 -0.35527136788E-14  0.00000000000E+00  0.90210033436E+03  0.90660404383E+03  0.90254523645E+02 0.  0.
    9000005    2    3    3    0    0  0.16862879591E+02  0.32238575059E+02  0.71024317316E+03  0.71132769418E+03  0.14766213291E+02 0.  0.
         22    1    3    3    0    0 -0.16862879591E+02 -0.32238575059E+02  0.19185716120E+03  0.19527634965E+03  0.00000000000E+00 0. -1.
         22    1    4    4    0    0  0.79301129002E+00  0.56296339756E-01  0.17519512901E+01  0.19238943596E+01  0.00000000000E+00 0. -1.
         22    1    4    4    0    0  0.16069868301E+02  0.32182278719E+02  0.70849122187E+03  0.70940379982E+03  0.00000000000E+00 0. -1.
<mgrwt>
<rscale>  0 0.90254524E+02</rscale>
<asrwt>0</asrwt>
<pdfrwt beam="2">  1        1 0.34643916E-03 0.90254524E+02</pdfrwt>
<pdfrwt beam="1">  1       -1 0.13913112E+00 0.90254524E+02</pdfrwt>
<totfact> 0.29569442E+04</totfact>
</mgrwt>
</event>
<event>
 7    1  0.3565607E-009  0.9592843E+02  0.7818608E-02  0.1289099E+00
          1   -1    0    0  501    0  0.00000000000E+00  0.00000000000E+00  0.34194567555E+01  0.34194604698E+01  0.50400000000E-02 0. -1.
         -1   -1    0    0    0  501 -0.00000000000E+00 -0.00000000000E+00 -0.67278664958E+03  0.67278664960E+03  0.50400000000E-02 0.  1.
         23    2    1    2    0    0  0.00000000000E+00 -0.29143354396E-15 -0.66936719283E+03  0.67620611007E+03  0.95928434077E+02 0.  0.
    9000005    2    3    3    0    0 -0.38012853974E+02  0.60797692760E-01 -0.53644046486E+03  0.53795092654E+03  0.13335901499E+02 0.  0.
         22    1    3    3    0    0  0.38012853974E+02 -0.60797692760E-01 -0.13292672797E+03  0.13825518353E+03  0.00000000000E+00 0. -1.
         22    1    4    4    0    0 -0.21994765550E+02  0.20794641245E+01 -0.22209469409E+03  0.22319083096E+03  0.00000000000E+00 0. -1.
         22    1    4    4    0    0 -0.16018088425E+02 -0.20186664317E+01 -0.31434577077E+03  0.31476009558E+03  0.00000000000E+00 0. -1.
<mgrwt>
<rscale>  0 0.95928434E+02</rscale>
<asrwt>0</asrwt>
<pdfrwt beam="1">  1        1 0.52607109E-03 0.95928434E+02</pdfrwt>
<pdfrwt beam="2">  1       -1 0.10350553E+00 0.95928434E+02</pdfrwt>
<totfact> 0.33318655E+04</totfact>
</mgrwt>
</event>
<event>
 7    1  0.3565607E-009  0.8394454E+02  0.7818608E-02  0.1318216E+00
         -1   -1    0    0    0  501 -0.00000000000E+00  0.00000000000E+00  0.77215751784E+01  0.77215768233E+01  0.50400000000E-02 0.  1.
          1   -1    0    0  501    0  0.00000000000E+00 -0.00000000000E+00 -0.22814920775E+03  0.22814920781E+03  0.50400000000E-02 0. -1.
         23    2    1    2    0    0  0.00000000000E+00  0.71054273576E-14 -0.22042763258E+03  0.23587078463E+03  0.83944540266E+02 0.  0.
    9000005    2    3    3    0    0  0.32018566967E+00 -0.41581637532E+02 -0.12150710697E+03  0.12856558678E+03  0.59998302386E+01 0.  0.
         22    1    3    3    0    0 -0.32018566967E+00  0.41581637532E+02 -0.98920525611E+02  0.10730519785E+03  0.00000000000E+00 0. -1.
         22    1    4    4    0    0  0.15336623369E+01 -0.18473530784E+02 -0.62221136001E+02  0.64923749315E+02  0.00000000000E+00 0. -1.
         22    1    4    4    0    0 -0.12134766672E+01 -0.23108106748E+02 -0.59285970964E+02  0.63641837467E+02  0.00000000000E+00 0. -1.
<mgrwt>
<rscale>  0 0.83944540E+02</rscale>
<asrwt>0</asrwt>
<pdfrwt beam="2">  1        1 0.35099873E-01 0.83944540E+02</pdfrwt>
<pdfrwt beam="1">  1       -1 0.11879349E-02 0.83944540E+02</pdfrwt>
<totfact> 0.15137968E+05</totfact>
</mgrwt>
</event>
<event>
 7    1  0.3565607E-009  0.9145706E+02  0.7818608E-02  0.1299361E+00
          1   -1    0    0  501    0  0.00000000000E+00  0.00000000000E+00  0.22895733537E+02  0.22895734092E+02  0.50400000000E-02 0. -1.
         -1   -1    0    0    0  501 -0.00000000000E+00 -0.00000000000E+00 -0.91331366169E+02  0.91331366308E+02  0.50400000000E-02 0.  1.
         23    2    1    2    0    0  0.00000000000E+00  0.00000000000E+00 -0.68435632632E+02  0.11422710040E+03  0.91457064528E+02 0.  0.
    9000005    2    3    3    0    0 -0.21791790909E+02 -0.39174208120E+02 -0.43486524714E+02  0.62924481375E+02  0.76754017366E+01 0.  0.
         22    1    3    3    0    0  0.21791790909E+02  0.39174208120E+02 -0.24949107918E+02  0.51302619024E+02  0.00000000000E+00 0. -1.
         22    1    4    4    0    0 -0.22936228942E+00 -0.52935044048E+01 -0.44680077221E+01  0.69308649495E+01  0.00000000000E+00 0.  1.
         22    1    4    4    0    0 -0.21562428619E+02 -0.33880703715E+02 -0.39018516992E+02  0.55993616426E+02  0.00000000000E+00 0.  1.
<mgrwt>
<rscale>  0 0.91457065E+02</rscale>
<asrwt>0</asrwt>
<pdfrwt beam="1">  1        1 0.35224206E-02 0.91457065E+02</pdfrwt>
<pdfrwt beam="2">  1       -1 0.14050979E-01 0.91457065E+02</pdfrwt>
<totfact> 0.82075270E+04</totfact>
</mgrwt>
</event>
<event>
 7    1  0.3565607E-009  0.8709497E+02  0.7818608E-02  0.1310043E+00
         -1   -1    0    0    0  501 -0.00000000000E+00  0.00000000000E+00  0.37350333486E+01  0.37350367491E+01  0.50400000000E-02 0.  1.
          1   -1    0    0  501    0  0.00000000000E+00 -0.00000000000E+00 -0.50772839133E+03  0.50772839135E+03  0.50400000000E-02 0. -1.
         23    2    1    2    0    0  0.00000000000E+00  0.00000000000E+00 -0.50399335798E+03  0.51146342810E+03  0.87094967700E+02 0.  0.
    9000005    2    3    3    0    0  0.19609184507E+02  0.38470890746E+02 -0.28200953494E+03  0.28531890077E+03  0.36010813460E+01 0.  0.
         22    1    3    3    0    0 -0.19609184507E+02 -0.38470890746E+02 -0.22198382304E+03  0.22614452734E+03  0.00000000000E+00 0. -1.
         22    1    4    4    0    0  0.82379513846E+01  0.18247542400E+02 -0.12063624732E+03  0.12228630673E+03  0.00000000000E+00 0.  1.
         22    1    4    4    0    0  0.11371233123E+02  0.20223348346E+02 -0.16137328762E+03  0.16303259404E+03  0.00000000000E+00 0.  1.
<mgrwt>
<rscale>  0 0.87094968E+02</rscale>
<asrwt>0</asrwt>
<pdfrwt beam="2">  1        1 0.78112006E-01 0.87094968E+02</pdfrwt>
<pdfrwt beam="1">  1       -1 0.57462118E-03 0.87094968E+02</pdfrwt>
<totfact> 0.15746529E+05</totfact>
</mgrwt>
</event>
<event>
 7    1  0.3565607E-009  0.8994865E+02  0.7818608E-02  0.1302976E+00
          1   -1    0    0  501    0  0.00000000000E+00  0.00000000000E+00  0.21508068123E+02  0.21508068714E+02  0.50400000000E-02 0. -1.
         -1   -1    0    0    0  501 -0.00000000000E+00 -0.00000000000E+00 -0.94043298005E+02  0.94043298140E+02  0.50400000000E-02 0.  1.
         23    2    1    2    0    0  0.35527136788E-14 -0.17763568394E-14 -0.72535229881E+02  0.11555136685E+03  0.89948645391E+02 0.  0.
    9000005    2    3    3    0    0  0.26051757634E+02 -0.12847199208E+02  0.52244408617E+01  0.32543469654E+02  0.13712695997E+02 0.  0.
         22    1    3    3    0    0 -0.26051757634E+02  0.12847199208E+02 -0.77759670743E+02  0.83007897199E+02  0.00000000000E+00 0.  1.
         22    1    4    4    0    0  0.22989150469E+02 -0.96653844804E+01 -0.94504681134E+00  0.24956237896E+02  0.00000000000E+00 0.  1.
         22    1    4    4    0    0  0.30626071649E+01 -0.31818147278E+01  0.61694876730E+01  0.75872317584E+01  0.00000000000E+00 0.  1.
<mgrwt>
<rscale>  0 0.89948645E+02</rscale>
<asrwt>0</asrwt>
<pdfrwt beam="1">  1        1 0.33089337E-02 0.89948645E+02</pdfrwt>
<pdfrwt beam="2">  1       -1 0.14468200E-01 0.89948645E+02</pdfrwt>
<totfact> 0.85209251E+04</totfact>
</mgrwt>
</event>
<event>
 7    1  0.3565607E-009  0.9184766E+02  0.7818608E-02  0.1298438E+00
         -1   -1    0    0    0  501 -0.00000000000E+00  0.00000000000E+00  0.47788703150E+01  0.47788729727E+01  0.50400000000E-02 0.  1.
          1   -1    0    0  501    0  0.00000000000E+00 -0.00000000000E+00 -0.44131715001E+03  0.44131715004E+03  0.50400000000E-02 0. -1.
         23    2    1    2    0    0  0.00000000000E+00  0.00000000000E+00 -0.43653827970E+03  0.44609602301E+03  0.91847657061E+02 0.  0.
    9000005    2    3    3    0    0  0.62162145805E+01  0.31310468645E+02 -0.37697439873E+03  0.37851760423E+03  0.12119927280E+02 0.  0.
         22    1    3    3    0    0 -0.62162145805E+01 -0.31310468645E+02 -0.59563880963E+02  0.67578418788E+02  0.00000000000E+00 0. -1.
         22    1    4    4    0    0  0.92298409443E+01  0.22002515684E+02 -0.29448870300E+03  0.29545371355E+03  0.00000000000E+00 0.  1.
         22    1    4    4    0    0 -0.30136263638E+01  0.93079529615E+01 -0.82485695739E+02  0.83063890673E+02  0.00000000000E+00 0.  1.
<mgrwt>
<rscale>  0 0.91847657E+02</rscale>
<asrwt>0</asrwt>
<pdfrwt beam="2">  1        1 0.67894914E-01 0.91847657E+02</pdfrwt>
<pdfrwt beam="1">  1       -1 0.73521137E-03 0.91847657E+02</pdfrwt>
<totfact> 0.13433061E+05</totfact>
</mgrwt>
</event>
<event>
 7    1  0.3565607E-009  0.9054263E+02  0.7818608E-02  0.1301543E+00
         -1   -1    0    0    0  501 -0.00000000000E+00  0.00000000000E+00  0.13351315931E+03  0.13351315941E+03  0.50400000000E-02 0.  1.
          1   -1    0    0  501    0  0.00000000000E+00 -0.00000000000E+00 -0.15350484462E+02  0.15350485289E+02  0.50400000000E-02 0. -1.
         23    2    1    2    0    0  0.35527136788E-14 -0.17763568394E-14  0.11816267485E+03  0.14886364470E+03  0.90542625235E+02 0.  0.
    9000005    2    3    3    0    0 -0.26253969576E+02 -0.14986726073E+02  0.11378960855E+03  0.11831865189E+03  0.11719876013E+02 0.  0.
         22    1    3    3    0    0  0.26253969576E+02  0.14986726073E+02  0.43730663025E+01  0.30544992810E+02  0.00000000000E+00 0. -1.
         22    1    4    4    0    0 -0.26523153550E+02 -0.13016415343E+02  0.11117428363E+03  0.11503315211E+03  0.00000000000E+00 0.  1.
         22    1    4    4    0    0  0.26918397394E+00 -0.19703107297E+01  0.26153249177E+01  0.32854997806E+01  0.00000000000E+00 0.  1.
<mgrwt>
<rscale>  0 0.90542625E+02</rscale>
<asrwt>0</asrwt>
<pdfrwt beam="2">  1        1 0.23616130E-02 0.90542625E+02</pdfrwt>
<pdfrwt beam="1">  1       -1 0.20540487E-01 0.90542625E+02</pdfrwt>
<totfact> 0.78180931E+04</totfact>
</mgrwt>
</event>
<event>
 7    1  0.3565607E-009  0.9095725E+02  0.7818608E-02  0.1300550E+00
          1   -1    0    0  501    0  0.00000000000E+00  0.00000000000E+00  0.45438726834E+02  0.45438727114E+02  0.50400000000E-02 0. -1.
         -1   -1    0    0    0  501 -0.00000000000E+00 -0.00000000000E+00 -0.45518553712E+02  0.45518553991E+02  0.50400000000E-02 0.  1.
         23    2    1    2    0    0  0.17763568394E-14 -0.88817841970E-15 -0.79826877944E-01  0.90957281104E+02  0.90957246075E+02 0.  0.
    9000005    2    3    3    0    0 -0.15246870628E+02  0.74560093879E+01 -0.41497653657E+02  0.46196857570E+02  0.11137111401E+02 0.  0.
         22    1    3    3    0    0  0.15246870628E+02 -0.74560093879E+01  0.41417826779E+02  0.44760423535E+02  0.00000000000E+00 0. -1.
         22    1    4    4    0    0 -0.14278601498E+02  0.80831788595E+01 -0.26591891883E+02  0.31246519088E+02  0.00000000000E+00 0. -1.
         22    1    4    4    0    0 -0.96826913040E+00 -0.62716947155E+00 -0.14905761774E+02  0.14950338482E+02  0.00000000000E+00 0. -1.
<mgrwt>
<rscale>  0 0.90957246E+02</rscale>
<asrwt>0</asrwt>
<pdfrwt beam="1">  1        1 0.69905734E-02 0.90957246E+02</pdfrwt>
<pdfrwt beam="2">  1       -1 0.70028544E-02 0.90957246E+02</pdfrwt>
<totfact> 0.93054456E+04</totfact>
</mgrwt>
</event>
<event>
 7    1  0.3565607E-009  0.8935689E+02  0.7818608E-02  0.1304417E+00
          1   -1    0    0  501    0  0.00000000000E+00  0.00000000000E+00  0.38436979470E+03  0.38436979474E+03  0.50400000000E-02 0. -1.
         -1   -1    0    0    0  501 -0.00000000000E+00 -0.00000000000E+00 -0.51933394280E+01  0.51933418736E+01  0.50400000000E-02 0.  1.
         23    2    1    2    0    0  0.00000000000E+00  0.00000000000E+00  0.37917645528E+03  0.38956313661E+03  0.89356886530E+02 0.  0.
    9000005    2    3    3    0    0  0.32487462112E+02  0.17419765478E+02  0.29811502863E+03  0.30051349701E+03  0.87697299830E+01 0.  0.
         22    1    3    3    0    0 -0.32487462112E+02 -0.17419765478E+02  0.81061426643E+02  0.89049639602E+02  0.00000000000E+00 0. -1.
         22    1    4    4    0    0  0.29960600263E+02  0.17817913273E+02  0.28692976703E+03  0.28903945545E+03  0.00000000000E+00 0. -1.
         22    1    4    4    0    0  0.25268618489E+01 -0.39814779520E+00  0.11185261607E+02  0.11474041559E+02  0.00000000000E+00 0. -1.
<mgrwt>
<rscale>  0 0.89356887E+02</rscale>
<asrwt>0</asrwt>
<pdfrwt beam="1">  1        1 0.59133801E-01 0.89356887E+02</pdfrwt>
<pdfrwt beam="2">  1       -1 0.79897568E-03 0.89356887E+02</pdfrwt>
<totfact> 0.14136029E+05</totfact>
</mgrwt>
</event>
<event>
 7    1  0.3565607E-009  0.9221473E+02  0.7818608E-02  0.1297575E+00
          1   -1    0    0  501    0  0.00000000000E+00  0.00000000000E+00  0.17197258780E+03  0.17197258787E+03  0.50400000000E-02 0. -1.
         -1   -1    0    0    0  501 -0.00000000000E+00 -0.00000000000E+00 -0.12361788954E+02  0.12361789981E+02  0.50400000000E-02 0.  1.
         23    2    1    2    0    0  0.17763568394E-14  0.35527136788E-14  0.15961079884E+03  0.18433437785E+03  0.92214726322E+02 0.  0.
    9000005    2    3    3    0    0  0.10549739375E+02  0.26694572734E+02  0.15183760071E+03  0.15459686243E+03  0.46514158927E+01 0.  0.
         22    1    3    3    0    0 -0.10549739375E+02 -0.26694572734E+02  0.77731981363E+01  0.29737515424E+02  0.00000000000E+00 0.  1.
         22    1    4    4    0    0  0.95451152246E+01  0.20738163615E+02  0.11190073583E+03  0.11420575876E+03  0.00000000000E+00 0. -1.
         22    1    4    4    0    0  0.10046241508E+01  0.59564091188E+01  0.39936864878E+02  0.40391103669E+02  0.00000000000E+00 0. -1.
<mgrwt>
<rscale>  0 0.92214726E+02</rscale>
<asrwt>0</asrwt>
<pdfrwt beam="1">  1        1 0.26457320E-01 0.92214726E+02</pdfrwt>
<pdfrwt beam="2">  1       -1 0.19018139E-02 0.92214726E+02</pdfrwt>
<totfact> 0.11157142E+05</totfact>
</mgrwt>
</event>
<event>
 7    1  0.3565607E-009  0.9225027E+02  0.7818608E-02  0.1297492E+00
          1   -1    0    0  501    0  0.00000000000E+00  0.00000000000E+00  0.41168861796E+01  0.41168892646E+01  0.50400000000E-02 0. -1.
         -1   -1    0    0    0  501 -0.00000000000E+00 -0.00000000000E+00 -0.51678069902E+03  0.51678069905E+03  0.50400000000E-02 0.  1.
         23    2    1    2    0    0  0.00000000000E+00  0.00000000000E+00 -0.51266381284E+03  0.52089758831E+03  0.92250271058E+02 0.  0.
    9000005    2    3    3    0    0 -0.37317963361E+02 -0.25663552166E+02 -0.25784523492E+03  0.26208538622E+03  0.12382899404E+02 0.  0.
         22    1    3    3    0    0  0.37317963361E+02  0.25663552166E+02 -0.25481857792E+03  0.25881220210E+03  0.00000000000E+00 0.  1.
         22    1    4    4    0    0 -0.24647914212E+02 -0.10864939735E+02 -0.12968039523E+03  0.13244837295E+03  0.00000000000E+00 0.  1.
         22    1    4    4    0    0 -0.12670049149E+02 -0.14798612431E+02 -0.12816483969E+03  0.12963701327E+03  0.00000000000E+00 0.  1.
<mgrwt>
<rscale>  0 0.92250271E+02</rscale>
<asrwt>0</asrwt>
<pdfrwt beam="1">  1        1 0.63336775E-03 0.92250271E+02</pdfrwt>
<pdfrwt beam="2">  1       -1 0.79504672E-01 0.92250271E+02</pdfrwt>
<totfact> 0.44685397E+04</totfact>
</mgrwt>
</event>
<event>
 7    1  0.3565607E-009  0.9238076E+02  0.7818608E-02  0.1297187E+00
         -1   -1    0    0    0  501 -0.00000000000E+00  0.00000000000E+00  0.11565683981E+02  0.11565685079E+02  0.50400000000E-02 0.  1.
          1   -1    0    0  501    0  0.00000000000E+00 -0.00000000000E+00 -0.18447255288E+03  0.18447255295E+03  0.50400000000E-02 0. -1.
         23    2    1    2    0    0  0.00000000000E+00  0.00000000000E+00 -0.17290686890E+03  0.19603823803E+03  0.92380763456E+02 0.  0.
    9000005    2    3    3    0    0 -0.35776902283E+02 -0.25086358006E+02 -0.11279256797E+03  0.12172107130E+03  0.13584686713E+02 0.  0.
         22    1    3    3    0    0  0.35776902283E+02  0.25086358006E+02 -0.60114300931E+02  0.74317166734E+02  0.00000000000E+00 0. -1.
         22    1    4    4    0    0 -0.36277708481E+01  0.15438731950E+01 -0.11771318797E+02  0.12414032866E+02  0.00000000000E+00 0.  1.
         22    1    4    4    0    0 -0.32149131435E+02 -0.26630231201E+02 -0.10102124917E+03  0.10930703843E+03  0.00000000000E+00 0.  1.
<mgrwt>
<rscale>  0 0.92380763E+02</rscale>
<asrwt>0</asrwt>
<pdfrwt beam="2">  1        1 0.28380391E-01 0.92380763E+02</pdfrwt>
<pdfrwt beam="1">  1       -1 0.17793362E-02 0.92380763E+02</pdfrwt>
<totfact> 0.11253141E+05</totfact>
</mgrwt>
</event>
<event>
 6    1  0.5864237E-009  0.1684241E+03  0.7818608E-02  0.1179501E+00
          1   -1    0    0  501    0  0.00000000000E+00  0.00000000000E+00  0.35557441897E+03  0.35557441900E+03  0.50400000000E-02 0. -1.
         -1   -1    0    0    0  501 -0.00000000000E+00 -0.00000000000E+00 -0.19944258078E+02  0.19944258715E+02  0.50400000000E-02 0.  1.
    9000005    2    1    2    0    0  0.30417429195E+02 -0.59812313067E+02  0.28005017414E+03  0.28838735315E+03  0.15376365982E+02 0.  0.
         22    1    1    2    0    0 -0.30417429195E+02  0.59812313067E+02  0.55579986752E+02  0.87131324566E+02  0.00000000000E+00 0. -1.
         22    1    3    3    0    0  0.42571501637E+01 -0.19847574896E+01  0.11164720546E+02  0.12112537912E+02  0.00000000000E+00 0. -1.
         22    1    3    3    0    0  0.26160279031E+02 -0.57827555577E+02  0.26888545359E+03  0.27627481524E+03  0.00000000000E+00 0. -1.
<mgrwt>
<rscale>  0 0.16842409E+03</rscale>
<asrwt>0</asrwt>
<pdfrwt beam="1">  1        1 0.54703747E-01 0.16842409E+03</pdfrwt>
<pdfrwt beam="2">  1       -1 0.30683480E-02 0.16842409E+03</pdfrwt>
<totfact> 0.24505132E+04</totfact>
</mgrwt>
</event>
<event>
 7    1  0.3565607E-009  0.1031839E+03  0.7818608E-02  0.1273740E+00
         -1   -1    0    0    0  501 -0.00000000000E+00  0.00000000000E+00  0.50466641995E+02  0.50466642246E+02  0.50400000000E-02 0.  1.
          1   -1    0    0  501    0  0.00000000000E+00 -0.00000000000E+00 -0.52742380549E+02  0.52742380790E+02  0.50400000000E-02 0. -1.
         23    2    1    2    0    0  0.00000000000E+00  0.00000000000E+00 -0.22757385545E+01  0.10320902304E+03  0.10318393019E+03 0.  0.
    9000005    2    3    3    0    0  0.38886487072E+02  0.32390133401E+02 -0.72638976189E+01  0.52354708082E+02  0.11268168937E+02 0.  0.
         22    1    3    3    0    0 -0.38886487072E+02 -0.32390133401E+02  0.49881590643E+01  0.50854314954E+02  0.00000000000E+00 0.  1.
         22    1    4    4    0    0  0.34713376723E+02  0.31491960706E+02 -0.90361840007E+01  0.47732742786E+02  0.00000000000E+00 0.  1.
         22    1    4    4    0    0  0.41731103493E+01  0.89817269565E+00  0.17722863819E+01  0.46219652961E+01  0.00000000000E+00 0.  1.
<mgrwt>
<rscale>  0 0.10318393E+03</rscale>
<asrwt>0</asrwt>
<pdfrwt beam="2">  1        1 0.81142124E-02 0.10318393E+03</pdfrwt>
<pdfrwt beam="1">  1       -1 0.77640988E-02 0.10318393E+03</pdfrwt>
<totfact> 0.66697001E+04</totfact>
</mgrwt>
</event>
<event>
 7    1  0.3565607E-009  0.9001939E+02  0.7818608E-02  0.1302805E+00
         -1   -1    0    0    0  501 -0.00000000000E+00  0.00000000000E+00  0.24742027950E+02  0.24742028463E+02  0.50400000000E-02 0.  1.
          1   -1    0    0  501    0  0.00000000000E+00 -0.00000000000E+00 -0.81879811475E+02  0.81879811630E+02  0.50400000000E-02 0. -1.
         23    2    1    2    0    0 -0.71054273576E-14  0.00000000000E+00 -0.57137783525E+02  0.10662184009E+03  0.90019389459E+02 0.  0.
    9000005    2    3    3    0    0  0.34579105553E+02  0.19851740620E+02 -0.50488445460E+02  0.66198828784E+02  0.15601142936E+02 0.  0.
         22    1    3    3    0    0 -0.34579105553E+02 -0.19851740620E+02 -0.66493380647E+01  0.40423011308E+02  0.00000000000E+00 0.  1.
         22    1    4    4    0    0  0.26552057836E+02  0.21260462325E+02 -0.44845301186E+02  0.56286055752E+02  0.00000000000E+00 0.  1.
         22    1    4    4    0    0  0.80270477176E+01 -0.14087217050E+01 -0.56431442742E+01  0.99127730329E+01  0.00000000000E+00 0.  1.
<mgrwt>
<rscale>  0 0.90019389E+02</rscale>
<asrwt>0</asrwt>
<pdfrwt beam="2">  1        1 0.12596894E-01 0.90019389E+02</pdfrwt>
<pdfrwt beam="1">  1       -1 0.38064659E-02 0.90019389E+02</pdfrwt>
<totfact> 0.10471505E+05</totfact>
</mgrwt>
</event>
<event>
 7    1  0.3565607E-009  0.8791168E+02  0.7818608E-02  0.1307989E+00
          1   -1    0    0  501    0  0.00000000000E+00  0.00000000000E+00  0.10810792171E+02  0.10810793346E+02  0.50400000000E-02 0. -1.
         -1   -1    0    0    0  501 -0.00000000000E+00 -0.00000000000E+00 -0.17872101198E+03  0.17872101205E+03  0.50400000000E-02 0.  1.
         23    2    1    2    0    0  0.00000000000E+00  0.00000000000E+00 -0.16791021981E+03  0.18953180540E+03  0.87911679205E+02 0.  0.
    9000005    2    3    3    0    0  0.21712967629E+02  0.35913285213E+02 -0.62366461308E+02  0.75950548243E+02  0.10848652648E+02 0.  0.
         22    1    3    3    0    0 -0.21712967629E+02 -0.35913285213E+02 -0.10554375850E+03  0.11358125716E+03  0.00000000000E+00 0.  1.
         22    1    4    4    0    0  0.14625514643E+02  0.22276071007E+02 -0.30038148358E+02  0.40154942097E+02  0.00000000000E+00 0. -1.
         22    1    4    4    0    0  0.70874529864E+01  0.13637214206E+02 -0.32328312950E+02  0.35795606146E+02  0.00000000000E+00 0. -1.
<mgrwt>
<rscale>  0 0.87911679E+02</rscale>
<asrwt>0</asrwt>
<pdfrwt beam="1">  1        1 0.16631990E-02 0.87911679E+02</pdfrwt>
<pdfrwt beam="2">  1       -1 0.27495538E-01 0.87911679E+02</pdfrwt>
<totfact> 0.78718016E+04</totfact>
</mgrwt>
</event>
<event>
 7    1  0.3565607E-009  0.9623998E+02  0.7818608E-02  0.1288408E+00
         -1   -1    0    0    0  501 -0.00000000000E+00  0.00000000000E+00  0.29893329844E+03  0.29893329848E+03  0.50400000000E-02 0.  1.
          1   -1    0    0  501    0  0.00000000000E+00 -0.00000000000E+00 -0.77459854078E+01  0.77459870475E+01  0.50400000000E-02 0. -1.
         23    2    1    2    0    0 -0.17763568394E-14  0.00000000000E+00  0.29118731303E+03  0.30667928553E+03  0.96239975594E+02 0.  0.
    9000005    2    3    3    0    0 -0.12434657795E+02 -0.43643879966E+02  0.97708728893E+02  0.10794989290E+03  0.68392034013E+01 0.  0.
         22    1    3    3    0    0  0.12434657795E+02  0.43643879966E+02  0.19347858414E+03  0.19872939263E+03  0.00000000000E+00 0.  1.
         22    1    4    4    0    0 -0.12017655377E+02 -0.32134966384E+02  0.75632510768E+02  0.83050326852E+02  0.00000000000E+00 0.  1.
         22    1    4    4    0    0 -0.41700241875E+00 -0.11508913582E+02  0.22076218126E+02  0.24899566052E+02  0.00000000000E+00 0.  1.
<mgrwt>
<rscale>  0 0.96239976E+02</rscale>
<asrwt>0</asrwt>
<pdfrwt beam="2">  1        1 0.11916902E-02 0.96239976E+02</pdfrwt>
<pdfrwt beam="1">  1       -1 0.45989737E-01 0.96239976E+02</pdfrwt>
<totfact> 0.52657160E+04</totfact>
</mgrwt>
</event>
<event>
 7    1  0.3565607E-009  0.1071093E+03  0.7818608E-02  0.1266019E+00
         -1   -1    0    0    0  501 -0.00000000000E+00  0.00000000000E+00  0.19586864901E+03  0.19586864908E+03  0.50400000000E-02 0.  1.
          1   -1    0    0  501    0  0.00000000000E+00 -0.00000000000E+00 -0.14642984221E+02  0.14642985088E+02  0.50400000000E-02 0. -1.
         23    2    1    2    0    0  0.00000000000E+00  0.00000000000E+00  0.18122566479E+03  0.21051163416E+03  0.10710932051E+03 0.  0.
    9000005    2    3    3    0    0  0.37353808794E+02 -0.27852501521E+02  0.41371868913E+02  0.63100124798E+02  0.99461218429E+01 0.  0.
         22    1    3    3    0    0 -0.37353808794E+02  0.27852501521E+02  0.13985379588E+03  0.14741150937E+03  0.00000000000E+00 0.  1.
         22    1    4    4    0    0  0.32220429388E+02 -0.27343615035E+02  0.34787999569E+02  0.54736041756E+02  0.00000000000E+00 0.  1.
         22    1    4    4    0    0  0.51333794062E+01 -0.50888648588E+00  0.65838693438E+01  0.83640830412E+01  0.00000000000E+00 0.  1.
<mgrwt>
<rscale>  0 0.10710932E+03</rscale>
<asrwt>0</asrwt>
<pdfrwt beam="2">  1        1 0.22527668E-02 0.10710932E+03</pdfrwt>
<pdfrwt beam="1">  1       -1 0.30133640E-01 0.10710932E+03</pdfrwt>
<totfact> 0.45819688E+04</totfact>
</mgrwt>
</event>
<event>
 7    1  0.3565607E-009  0.9229960E+02  0.7818608E-02  0.1297377E+00
         -1   -1    0    0    0  501 -0.00000000000E+00  0.00000000000E+00  0.29884122825E+02  0.29884123250E+02  0.50400000000E-02 0.  1.
          1   -1    0    0  501    0  0.00000000000E+00 -0.00000000000E+00 -0.71268754290E+02  0.71268754468E+02  0.50400000000E-02 0. -1.
         23    2    1    2    0    0  0.00000000000E+00  0.00000000000E+00 -0.41384631464E+02  0.10115287772E+03  0.92299604275E+02 0.  0.
    9000005    2    3    3    0    0  0.81850574141E+01  0.42085530512E+02 -0.37881447382E+02  0.58135911971E+02  0.10324396427E+02 0.  0.
         22    1    3    3    0    0 -0.81850574141E+01 -0.42085530512E+02 -0.35031840823E+01  0.43016965747E+02  0.00000000000E+00 0.  1.
         22    1    4    4    0    0  0.55914261895E+01  0.28796213041E+02 -0.31889516214E+02  0.43329287747E+02  0.00000000000E+00 0.  1.
         22    1    4    4    0    0  0.25936312246E+01  0.13289317472E+02 -0.59919311685E+01  0.14806624225E+02  0.00000000000E+00 0.  1.
<mgrwt>
<rscale>  0 0.92299604E+02</rscale>
<asrwt>0</asrwt>
<pdfrwt beam="2">  1        1 0.10964424E-01 0.92299604E+02</pdfrwt>
<pdfrwt beam="1">  1       -1 0.45975574E-02 0.92299604E+02</pdfrwt>
<totfact> 0.95653527E+04</totfact>
</mgrwt>
</event>
<event>
 7    1  0.3565607E-009  0.8854830E+02  0.7818608E-02  0.1306406E+00
          1   -1    0    0  501    0  0.00000000000E+00  0.00000000000E+00  0.18945445103E+02  0.18945445774E+02  0.50400000000E-02 0. -1.
         -1   -1    0    0    0  501 -0.00000000000E+00 -0.00000000000E+00 -0.10346550833E+03  0.10346550845E+03  0.50400000000E-02 0.  1.
         23    2    1    2    0    0  0.00000000000E+00  0.00000000000E+00 -0.84520063226E+02  0.12241095423E+03  0.88548295448E+02 0.  0.
    9000005    2    3    3    0    0 -0.11710867072E+02 -0.26040628923E+02 -0.88735797825E+02  0.93548674681E+02  0.78774333814E+01 0.  0.
         22    1    3    3    0    0  0.11710867072E+02  0.26040628923E+02  0.42157345992E+01  0.28862279544E+02  0.00000000000E+00 0. -1.
         22    1    4    4    0    0 -0.17643025106E+01 -0.10786036485E+02 -0.25514699253E+02  0.27757003159E+02  0.00000000000E+00 0. -1.
         22    1    4    4    0    0 -0.99465645612E+01 -0.15254592439E+02 -0.63221098572E+02  0.65791671522E+02  0.00000000000E+00 0. -1.
<mgrwt>
<rscale>  0 0.88548295E+02</rscale>
<asrwt>0</asrwt>
<pdfrwt beam="1">  1        1 0.29146840E-02 0.88548295E+02</pdfrwt>
<pdfrwt beam="2">  1       -1 0.15917770E-01 0.88548295E+02</pdfrwt>
<totfact> 0.87174610E+04</totfact>
</mgrwt>
</event>
<event>
 7    1  0.3565607E-009  0.9494363E+02  0.7818608E-02  0.1291303E+00
         -1   -1    0    0    0  501 -0.00000000000E+00  0.00000000000E+00  0.54497436824E+01  0.54497460129E+01  0.50400000000E-02 0.  1.
          1   -1    0    0  501    0  0.00000000000E+00 -0.00000000000E+00 -0.41351904504E+03  0.41351904507E+03  0.50400000000E-02 0. -1.
         23    2    1    2    0    0  0.00000000000E+00  0.00000000000E+00 -0.40806930136E+03  0.41896879109E+03  0.94943631654E+02 0.  0.
    9000005    2    3    3    0    0 -0.31439497286E+02  0.23273522376E+02 -0.32172349366E+03  0.32417587289E+03  0.73410731929E+01 0.  0.
         22    1    3    3    0    0  0.31439497286E+02 -0.23273522376E+02 -0.86345807699E+02  0.94792918199E+02  0.00000000000E+00 0.  1.
         22    1    4    4    0    0 -0.14820793616E+01  0.84485084547E+00 -0.31998460767E+02  0.32043904625E+02  0.00000000000E+00 0. -1.
         22    1    4    4    0    0 -0.29957417924E+02  0.22428671531E+02 -0.28972503289E+03  0.29213196826E+03  0.00000000000E+00 0. -1.
<mgrwt>
<rscale>  0 0.94943632E+02</rscale>
<asrwt>0</asrwt>
<pdfrwt beam="2">  1        1 0.63618290E-01 0.94943632E+02</pdfrwt>
<pdfrwt beam="1">  1       -1 0.83842261E-03 0.94943632E+02</pdfrwt>
<totfact> 0.12176667E+05</totfact>
</mgrwt>
</event>
<event>
 7    1  0.3565607E-009  0.9099654E+02  0.7818608E-02  0.1300456E+00
         -1   -1    0    0    0  501 -0.00000000000E+00  0.00000000000E+00  0.73955246015E+01  0.73955263189E+01  0.50400000000E-02 0.  1.
          1   -1    0    0  501    0  0.00000000000E+00 -0.00000000000E+00 -0.27991149904E+03  0.27991149909E+03  0.50400000000E-02 0. -1.
         23    2    1    2    0    0  0.00000000000E+00 -0.71054273576E-14 -0.27251597444E+03  0.28730702541E+03  0.90996541267E+02 0.  0.
    9000005    2    3    3    0    0 -0.21384157144E+02  0.32461327542E+02 -0.20990421645E+03  0.21360999561E+03  0.76439634512E+01 0.  0.
         22    1    3    3    0    0  0.21384157144E+02 -0.32461327542E+02 -0.62611757990E+02  0.73697029799E+02  0.00000000000E+00 0.  1.
         22    1    4    4    0    0 -0.21395344856E+02  0.32592954448E+02 -0.20988622964E+03  0.21347667519E+03  0.00000000000E+00 0. -1.
         22    1    4    4    0    0  0.11187712006E-01 -0.13162690630E+00 -0.17986815540E-01  0.13332041440E+00  0.00000000000E+00 0. -1.
<mgrwt>
<rscale>  0 0.90996541E+02</rscale>
<asrwt>0</asrwt>
<pdfrwt beam="2">  1        1 0.43063299E-01 0.90996541E+02</pdfrwt>
<pdfrwt beam="1">  1       -1 0.11377734E-02 0.90996541E+02</pdfrwt>
<totfact> 0.12709476E+05</totfact>
</mgrwt>
</event>
<event>
 7    1  0.3565607E-009  0.8936020E+02  0.7818608E-02  0.1304409E+00
          1   -1    0    0  501    0  0.00000000000E+00  0.00000000000E+00  0.24503791509E+03  0.24503791514E+03  0.50400000000E-02 0. -1.
         -1   -1    0    0    0  501 -0.00000000000E+00 -0.00000000000E+00 -0.81469470588E+01  0.81469486177E+01  0.50400000000E-02 0.  1.
         23    2    1    2    0    0  0.00000000000E+00 -0.35527136788E-14  0.23689096803E+03  0.25318486376E+03  0.89360195289E+02 0.  0.
    9000005    2    3    3    0    0  0.74614953581E+01 -0.16415194412E+02  0.23362450667E+03  0.23485995474E+03  0.15926572334E+02 0.  0.
         22    1    3    3    0    0 -0.74614953581E+01  0.16415194412E+02  0.32664613633E+01  0.18324909015E+02  0.00000000000E+00 0.  1.
         22    1    4    4    0    0  0.46232023036E+01 -0.12870765881E+01  0.16318952167E+02  0.17009960774E+02  0.00000000000E+00 0. -1.
         22    1    4    4    0    0  0.28382930545E+01 -0.15128117824E+02  0.21730555450E+03  0.21784999397E+03  0.00000000000E+00 0. -1.
<mgrwt>
<rscale>  0 0.89360195E+02</rscale>
<asrwt>0</asrwt>
<pdfrwt beam="1">  1        1 0.37698141E-01 0.89360195E+02</pdfrwt>
<pdfrwt beam="2">  1       -1 0.12533766E-02 0.89360195E+02</pdfrwt>
<totfact> 0.12998302E+05</totfact>
</mgrwt>
</event>
<event>
 7    1  0.3565607E-009  0.9073259E+02  0.7818608E-02  0.1301087E+00
          1   -1    0    0  501    0  0.00000000000E+00  0.00000000000E+00  0.59895590664E+03  0.59895590666E+03  0.50400000000E-02 0. -1.
         -1   -1    0    0    0  501 -0.00000000000E+00 -0.00000000000E+00 -0.34361456242E+01  0.34361493204E+01  0.50400000000E-02 0.  1.
         23    2    1    2    0    0 -0.35527136788E-14  0.00000000000E+00  0.59551976101E+03  0.60239205598E+03  0.90732592542E+02 0.  0.
    9000005    2    3    3    0    0 -0.17517279578E+02 -0.10829711617E+02  0.56602198473E+03  0.56641627881E+03  0.47303235747E+01 0.  0.
         22    1    3    3    0    0  0.17517279578E+02  0.10829711617E+02  0.29497776281E+02  0.35975777170E+02  0.00000000000E+00 0.  1.
         22    1    4    4    0    0 -0.45178553154E+01 -0.37016097084E+01  0.21878674888E+03  0.21886469431E+03  0.00000000000E+00 0.  1.
         22    1    4    4    0    0 -0.12999424262E+02 -0.71281019090E+01  0.34723523585E+03  0.34755158450E+03  0.00000000000E+00 0.  1.
<mgrwt>
<rscale>  0 0.90732593E+02</rscale>
<asrwt>0</asrwt>
<pdfrwt beam="1">  1        1 0.92146958E-01 0.90732593E+02</pdfrwt>
<pdfrwt beam="2">  1       -1 0.52863868E-03 0.90732593E+02</pdfrwt>
<totfact> 0.14341390E+05</totfact>
</mgrwt>
</event>
<event>
 7    1  0.3565607E-009  0.9155598E+02  0.7818608E-02  0.1299127E+00
         -1   -1    0    0    0  501 -0.00000000000E+00  0.00000000000E+00  0.56952661379E+01  0.56952683679E+01  0.50400000000E-02 0.  1.
          1   -1    0    0  501    0  0.00000000000E+00 -0.00000000000E+00 -0.36795893503E+03  0.36795893506E+03  0.50400000000E-02 0. -1.
         23    2    1    2    0    0  0.00000000000E+00  0.00000000000E+00 -0.36226366889E+03  0.37365420343E+03  0.91555982565E+02 0.  0.
    9000005    2    3    3    0    0 -0.40206453197E+02 -0.16588920007E+02 -0.23002072110E+03  0.23444232037E+03  0.12724712111E+02 0.  0.
         22    1    3    3    0    0  0.40206453197E+02  0.16588920007E+02 -0.13224294778E+03  0.13921188306E+03  0.00000000000E+00 0.  1.
         22    1    4    4    0    0 -0.85894379545E+01 -0.20865785070E+01 -0.77655950042E+02  0.78157397802E+02  0.00000000000E+00 0. -1.
         22    1    4    4    0    0 -0.31617015242E+02 -0.14502341500E+02 -0.15236477106E+03  0.15628492257E+03  0.00000000000E+00 0. -1.
<mgrwt>
<rscale>  0 0.91555983E+02</rscale>
<asrwt>0</asrwt>
<pdfrwt beam="2">  1        1 0.56609049E-01 0.91555983E+02</pdfrwt>
<pdfrwt beam="1">  1       -1 0.87619525E-03 0.91555983E+02</pdfrwt>
<totfact> 0.13153824E+05</totfact>
</mgrwt>
</event>
<event>
 7    1  0.3565607E-009  0.9101312E+02  0.7818608E-02  0.1300417E+00
          1   -1    0    0  501    0  0.00000000000E+00  0.00000000000E+00  0.17776978248E+03  0.17776978255E+03  0.50400000000E-02 0. -1.
         -1   -1    0    0    0  501 -0.00000000000E+00 -0.00000000000E+00 -0.11649038291E+02  0.11649039381E+02  0.50400000000E-02 0.  1.
         23    2    1    2    0    0 -0.44408920985E-15  0.00000000000E+00  0.16612074419E+03  0.18941882193E+03  0.91013122418E+02 0.  0.
    9000005    2    3    3    0    0  0.18784074694E+01 -0.37075112234E+02  0.29038866919E+02  0.47399339334E+02  0.50348004510E+01 0.  0.
         22    1    3    3    0    0 -0.18784074694E+01  0.37075112234E+02  0.13708187727E+03  0.14201948260E+03  0.00000000000E+00 0. -1.
         22    1    4    4    0    0  0.31857176814E+01 -0.20687755125E+02  0.14612654492E+02  0.25527665005E+02  0.00000000000E+00 0. -1.
         22    1    4    4    0    0 -0.13073102120E+01 -0.16387357108E+02  0.14426212427E+02  0.21871674329E+02  0.00000000000E+00 0. -1.
<mgrwt>
<rscale>  0 0.91013122E+02</rscale>
<asrwt>0</asrwt>
<pdfrwt beam="1">  1        1 0.27349195E-01 0.91013122E+02</pdfrwt>
<pdfrwt beam="2">  1       -1 0.17921600E-02 0.91013122E+02</pdfrwt>
<totfact> 0.11631089E+05</totfact>
</mgrwt>
</event>
<event>
 7    1  0.3565607E-009  0.9134287E+02  0.7818608E-02  0.1299632E+00
          1   -1    0    0  501    0  0.00000000000E+00  0.00000000000E+00  0.21412332820E+03  0.21412332826E+03  0.50400000000E-02 0. -1.
         -1   -1    0    0    0  501 -0.00000000000E+00 -0.00000000000E+00 -0.97414879204E+01  0.97414892242E+01  0.50400000000E-02 0.  1.
         23    2    1    2    0    0  0.00000000000E+00  0.88817841970E-15  0.20438184028E+03  0.22386481748E+03  0.91342869841E+02 0.  0.
    9000005    2    3    3    0    0 -0.36401572258E+02 -0.50200018821E+01  0.16703804121E+03  0.17147365209E+03  0.12297612379E+02 0.  0.
         22    1    3    3    0    0  0.36401572258E+02  0.50200018821E+01  0.37343799072E+02  0.52391165389E+02  0.00000000000E+00 0.  1.
         22    1    4    4    0    0 -0.25939890361E+02 -0.74086976185E+01  0.13551736890E+03  0.13817642341E+03  0.00000000000E+00 0. -1.
         22    1    4    4    0    0 -0.10461681896E+02  0.23886957364E+01  0.31520672311E+02  0.33297228689E+02  0.00000000000E+00 0. -1.
<mgrwt>
<rscale>  0 0.91342870E+02</rscale>
<asrwt>0</asrwt>
<pdfrwt beam="1">  1        1 0.32942046E-01 0.91342870E+02</pdfrwt>
<pdfrwt beam="2">  1       -1 0.14986908E-02 0.91342870E+02</pdfrwt>
<totfact> 0.11940406E+05</totfact>
</mgrwt>
</event>
<event>
 7    1  0.3565607E-009  0.9187106E+02  0.7818608E-02  0.1298383E+00
         -1   -1    0    0    0  501 -0.00000000000E+00  0.00000000000E+00  0.24583077528E+02  0.24583078045E+02  0.50400000000E-02 0.  1.
          1   -1    0    0  501    0  0.00000000000E+00 -0.00000000000E+00 -0.85834374439E+02  0.85834374587E+02  0.50400000000E-02 0. -1.
         23    2    1    2    0    0  0.00000000000E+00  0.00000000000E+00 -0.61251296911E+02  0.11041745263E+03  0.91871064391E+02 0.  0.
    9000005    2    3    3    0    0  0.38224298749E+02  0.18409173588E+01 -0.60133456724E+02  0.72132526639E+02  0.11071711261E+02 0.  0.
         22    1    3    3    0    0 -0.38224298749E+02 -0.18409173588E+01 -0.11178401875E+01  0.38284925993E+02  0.00000000000E+00 0. -1.
         22    1    4    4    0    0  0.76505906178E+01 -0.40716627002E+01 -0.11939199683E+02  0.14753117061E+02  0.00000000000E+00 0.  1.
         22    1    4    4    0    0  0.30573708131E+02  0.59125800590E+01 -0.48194257041E+02  0.57379409578E+02  0.00000000000E+00 0.  1.
<mgrwt>
<rscale>  0 0.91871064E+02</rscale>
<asrwt>0</asrwt>
<pdfrwt beam="2">  1        1 0.13205288E-01 0.91871064E+02</pdfrwt>
<pdfrwt beam="1">  1       -1 0.37820120E-02 0.91871064E+02</pdfrwt>
<totfact> 0.99781113E+04</totfact>
</mgrwt>
</event>
<event>
 7    1  0.3565607E-009  0.1012697E+03  0.7818608E-02  0.1277648E+00
          1   -1    0    0  501    0  0.00000000000E+00  0.00000000000E+00  0.89878787503E+02  0.89878787645E+02  0.50400000000E-02 0. -1.
         -1   -1    0    0    0  501 -0.00000000000E+00 -0.00000000000E+00 -0.28526064683E+02  0.28526065129E+02  0.50400000000E-02 0.  1.
         23    2    1    2    0    0 -0.17763568394E-14 -0.35527136788E-14  0.61352722820E+02  0.11840485277E+03  0.10126970210E+03 0.  0.
    9000005    2    3    3    0    0 -0.10026551720E+02 -0.30345380392E+02  0.76375107287E+02  0.83091315912E+02  0.70452761748E+01 0.  0.
         22    1    3    3    0    0  0.10026551720E+02  0.30345380392E+02 -0.15022384467E+02  0.35313536861E+02  0.00000000000E+00 0.  1.
         22    1    4    4    0    0 -0.18448716918E+01 -0.99775732562E+01  0.17113829390E+02  0.19895694912E+02  0.00000000000E+00 0. -1.
         22    1    4    4    0    0 -0.81816800284E+01 -0.20367807136E+02  0.59261277897E+02  0.63195621000E+02  0.00000000000E+00 0. -1.
<mgrwt>
<rscale>  0 0.10126970E+03</rscale>
<asrwt>0</asrwt>
<pdfrwt beam="1">  1        1 0.13827506E-01 0.10126970E+03</pdfrwt>
<pdfrwt beam="2">  1       -1 0.43886254E-02 0.10126970E+03</pdfrwt>
<totfact> 0.76851305E+04</totfact>
</mgrwt>
</event>
<event>
 7    1  0.3565607E-009  0.9118018E+02  0.7818608E-02  0.1300019E+00
         -1   -1    0    0    0  501 -0.00000000000E+00  0.00000000000E+00  0.27576926061E+02  0.27576926522E+02  0.50400000000E-02 0.  1.
          1   -1    0    0  501    0  0.00000000000E+00 -0.00000000000E+00 -0.75369404277E+02  0.75369404446E+02  0.50400000000E-02 0. -1.
         23    2    1    2    0    0  0.00000000000E+00  0.00000000000E+00 -0.47792478216E+02  0.10294633097E+03  0.91180184721E+02 0.  0.
    9000005    2    3    3    0    0 -0.35725229975E+02 -0.19586965672E+02 -0.46592065773E+02  0.62186273668E+02  0.60308174125E+01 0.  0.
         22    1    3    3    0    0  0.35725229975E+02  0.19586965672E+02 -0.12004124422E+01  0.40760057299E+02  0.00000000000E+00 0.  1.
         22    1    4    4    0    0 -0.18508169721E+01  0.27004963128E+00 -0.15257129501E+01  0.24137626796E+01  0.00000000000E+00 0.  1.
         22    1    4    4    0    0 -0.33874413003E+02 -0.19857015303E+02 -0.45066352823E+02  0.59772510989E+02  0.00000000000E+00 0.  1.
<mgrwt>
<rscale>  0 0.91180185E+02</rscale>
<asrwt>0</asrwt>
<pdfrwt beam="2">  1        1 0.11595293E-01 0.91180185E+02</pdfrwt>
<pdfrwt beam="1">  1       -1 0.42426041E-02 0.91180185E+02</pdfrwt>
<totfact> 0.99795777E+04</totfact>
</mgrwt>
</event>
<event>
 7    1  0.3565607E-009  0.9396939E+02  0.7818608E-02  0.1293514E+00
          1   -1    0    0  501    0  0.00000000000E+00  0.00000000000E+00  0.36651929974E+02  0.36651930321E+02  0.50400000000E-02 0. -1.
         -1   -1    0    0    0  501 -0.00000000000E+00 -0.00000000000E+00 -0.60230432836E+02  0.60230433046E+02  0.50400000000E-02 0.  1.
         23    2    1    2    0    0 -0.44408920985E-15 -0.17763568394E-14 -0.23578502861E+02  0.96882363367E+02  0.93969391476E+02 0.  0.
    9000005    2    3    3    0    0 -0.38610548771E+01 -0.15235882598E+02  0.33582713937E+02  0.37599612342E+02  0.62363699041E+01 0.  0.
         22    1    3    3    0    0  0.38610548771E+01  0.15235882598E+02 -0.57161216798E+02  0.59282751025E+02  0.00000000000E+00 0.  1.
         22    1    4    4    0    0 -0.20580222612E+01 -0.27677712825E+01  0.13155493013E+02  0.13600110658E+02  0.00000000000E+00 0.  1.
         22    1    4    4    0    0 -0.18030326160E+01 -0.12468111315E+02  0.20427220924E+02  0.23999501684E+02  0.00000000000E+00 0.  1.
<mgrwt>
<rscale>  0 0.93969391E+02</rscale>
<asrwt>0</asrwt>
<pdfrwt beam="1">  1        1 0.56387585E-02 0.93969391E+02</pdfrwt>
<pdfrwt beam="2">  1       -1 0.92662205E-02 0.93969391E+02</pdfrwt>
<totfact> 0.82094048E+04</totfact>
</mgrwt>
</event>
<event>
 7    1  0.3565607E-009  0.8979985E+02  0.7818608E-02  0.1303337E+00
          1   -1    0    0  501    0  0.00000000000E+00  0.00000000000E+00  0.17891916004E+03  0.17891916012E+03  0.50400000000E-02 0. -1.
         -1   -1    0    0    0  501 -0.00000000000E+00 -0.00000000000E+00 -0.11267677047E+02  0.11267678175E+02  0.50400000000E-02 0.  1.
         23    2    1    2    0    0  0.00000000000E+00 -0.35527136788E-14  0.16765148300E+03  0.19018683829E+03  0.89799853606E+02 0.  0.
    9000005    2    3    3    0    0 -0.39255340159E+02 -0.18242072960E+02  0.69654401594E+02  0.83055223347E+02  0.13140757472E+02 0.  0.
         22    1    3    3    0    0  0.39255340159E+02  0.18242072960E+02  0.97997081403E+02  0.10713161494E+03  0.00000000000E+00 0. -1.
         22    1    4    4    0    0 -0.29948111138E+02 -0.12679146822E+02  0.40446491185E+02  0.51899602831E+02  0.00000000000E+00 0. -1.
         22    1    4    4    0    0 -0.93072290210E+01 -0.55629261377E+01  0.29207910409E+02  0.31155620515E+02  0.00000000000E+00 0. -1.
<mgrwt>
<rscale>  0 0.89799854E+02</rscale>
<asrwt>0</asrwt>
<pdfrwt beam="1">  1        1 0.27526025E-01 0.89799854E+02</pdfrwt>
<pdfrwt beam="2">  1       -1 0.17334889E-02 0.89799854E+02</pdfrwt>
<totfact> 0.12072314E+05</totfact>
</mgrwt>
</event>
<event>
 7    1  0.3565607E-009  0.9271528E+02  0.7818608E-02  0.1296406E+00
          1   -1    0    0  501    0  0.00000000000E+00  0.00000000000E+00  0.50849172368E+01  0.50849197345E+01  0.50400000000E-02 0. -1.
         -1   -1    0    0    0  501 -0.00000000000E+00 -0.00000000000E+00 -0.42262838893E+03  0.42262838896E+03  0.50400000000E-02 0.  1.
         23    2    1    2    0    0  0.00000000000E+00  0.00000000000E+00 -0.41754347169E+03  0.42771330869E+03  0.92715282887E+02 0.  0.
    9000005    2    3    3    0    0 -0.35132331518E+02 -0.21659878630E+02 -0.30253740189E+03  0.30552563685E+03  0.10658525583E+02 0.  0.
         22    1    3    3    0    0  0.35132331518E+02  0.21659878630E+02 -0.11500606980E+03  0.12218767185E+03  0.00000000000E+00 0. -1.
         22    1    4    4    0    0 -0.18516839786E+02 -0.77604606331E+01 -0.17673641061E+03  0.17787314845E+03  0.00000000000E+00 0.  1.
         22    1    4    4    0    0 -0.16615491732E+02 -0.13899417997E+02 -0.12580099129E+03  0.12765248840E+03  0.00000000000E+00 0.  1.
<mgrwt>
<rscale>  0 0.92715283E+02</rscale>
<asrwt>0</asrwt>
<pdfrwt beam="1">  1        1 0.78229549E-03 0.92715283E+02</pdfrwt>
<pdfrwt beam="2">  1       -1 0.65019724E-01 0.92715283E+02</pdfrwt>
<totfact> 0.49568703E+04</totfact>
</mgrwt>
</event>
<event>
 7    1  0.3565607E-009  0.7754733E+02  0.7818608E-02  0.1336159E+00
         -1   -1    0    0    0  501 -0.00000000000E+00  0.00000000000E+00  0.33951544378E+01  0.33951581786E+01  0.50400000000E-02 0.  1.
          1   -1    0    0  501    0  0.00000000000E+00 -0.00000000000E+00 -0.44280646697E+03  0.44280646700E+03  0.50400000000E-02 0. -1.
         23    2    1    2    0    0  0.00000000000E+00  0.00000000000E+00 -0.43941131254E+03  0.44620162518E+03  0.77547332189E+02 0.  0.
    9000005    2    3    3    0    0  0.95042042006E+01  0.31592579729E+02 -0.32732225299E+03  0.32935823315E+03  0.15766022006E+02 0.  0.
         22    1    3    3    0    0 -0.95042042006E+01 -0.31592579729E+02 -0.11208905955E+03  0.11684339203E+03  0.00000000000E+00 0.  1.
         22    1    4    4    0    0  0.30480909704E+01  0.29526233725E+02 -0.25626358409E+03  0.25797696383E+03  0.00000000000E+00 0.  1.
         22    1    4    4    0    0  0.64561132302E+01  0.20663460046E+01 -0.71058668900E+02  0.71381269319E+02  0.00000000000E+00 0.  1.
<mgrwt>
<rscale>  0 0.77547332E+02</rscale>
<asrwt>0</asrwt>
<pdfrwt beam="2">  1        1 0.68124026E-01 0.77547332E+02</pdfrwt>
<pdfrwt beam="1">  1       -1 0.52233209E-03 0.77547332E+02</pdfrwt>
<totfact> 0.20981586E+05</totfact>
</mgrwt>
</event>
<event>
 7    1  0.3565607E-009  0.8710901E+02  0.7818608E-02  0.1310008E+00
          1   -1    0    0  501    0  0.00000000000E+00  0.00000000000E+00  0.11414848128E+03  0.11414848139E+03  0.50400000000E-02 0. -1.
         -1   -1    0    0    0  501 -0.00000000000E+00 -0.00000000000E+00 -0.16618660695E+02  0.16618661459E+02  0.50400000000E-02 0.  1.
         23    2    1    2    0    0 -0.17763568394E-14  0.00000000000E+00  0.97529820586E+02  0.13076714285E+03  0.87109010705E+02 0.  0.
    9000005    2    3    3    0    0 -0.12991210125E+02  0.40988742104E+02  0.53943979140E+02  0.69541542861E+02  0.87877629820E+01 0.  0.
         22    1    3    3    0    0  0.12991210125E+02 -0.40988742104E+02  0.43585841446E+02  0.61225599991E+02  0.00000000000E+00 0. -1.
         22    1    4    4    0    0 -0.36754646479E+01  0.10334751602E+02  0.82056191102E+01  0.13698478603E+02  0.00000000000E+00 0. -1.
         22    1    4    4    0    0 -0.93157454767E+01  0.30653990501E+02  0.45738360030E+02  0.55843064258E+02  0.00000000000E+00 0. -1.
<mgrwt>
<rscale>  0 0.87109011E+02</rscale>
<asrwt>0</asrwt>
<pdfrwt beam="1">  1        1 0.17561305E-01 0.87109011E+02</pdfrwt>
<pdfrwt beam="2">  1       -1 0.25567170E-02 0.87109011E+02</pdfrwt>
<totfact> 0.12085304E+05</totfact>
</mgrwt>
</event>
<event>
 7    1  0.3565607E-009  0.1000392E+03  0.7818608E-02  0.1280214E+00
         -1   -1    0    0    0  501 -0.00000000000E+00  0.00000000000E+00  0.39095752456E+01  0.39095784943E+01  0.50400000000E-02 0.  1.
          1   -1    0    0  501    0  0.00000000000E+00 -0.00000000000E+00 -0.63995655691E+03  0.63995655693E+03  0.50400000000E-02 0. -1.
         23    2    1    2    0    0  0.00000000000E+00  0.00000000000E+00 -0.63604698167E+03  0.64386613543E+03  0.10003917963E+03 0.  0.
    9000005    2    3    3    0    0  0.17159784389E+02  0.86355482323E+01 -0.61463435218E+03  0.61509928654E+03  0.14237785044E+02 0.  0.
         22    1    3    3    0    0 -0.17159784389E+02 -0.86355482323E+01 -0.21412629484E+02  0.28766848889E+02  0.00000000000E+00 0.  1.
         22    1    4    4    0    0  0.40038665078E+01 -0.13752327090E+01 -0.39278607320E+02  0.39506090733E+02  0.00000000000E+00 0. -1.
         22    1    4    4    0    0  0.13155917881E+02  0.10010780941E+02 -0.57535574486E+03  0.57559319581E+03  0.00000000000E+00 0. -1.
<mgrwt>
<rscale>  0 0.10003918E+03</rscale>
<asrwt>0</asrwt>
<pdfrwt beam="2">  1        1 0.98454772E-01 0.10003918E+03</pdfrwt>
<pdfrwt beam="1">  1       -1 0.60147388E-03 0.10003918E+03</pdfrwt>
<totfact> 0.11098177E+05</totfact>
</mgrwt>
</event>
<event>
 7    1  0.3565607E-009  0.9270354E+02  0.7818608E-02  0.1296434E+00
          1   -1    0    0  501    0  0.00000000000E+00  0.00000000000E+00  0.22145753510E+02  0.22145754084E+02  0.50400000000E-02 0. -1.
         -1   -1    0    0    0  501 -0.00000000000E+00 -0.00000000000E+00 -0.97015729486E+02  0.97015729617E+02  0.50400000000E-02 0.  1.
         23    2    1    2    0    0 -0.71054273576E-14  0.17763568394E-14 -0.74869975976E+02  0.11916148370E+03  0.92703537663E+02 0.  0.
    9000005    2    3    3    0    0 -0.42682517994E+02  0.13886673185E+02 -0.44755160992E+02  0.65110219923E+02  0.14888897491E+02 0.  0.
         22    1    3    3    0    0  0.42682517994E+02 -0.13886673185E+02 -0.30114814984E+02  0.54051263778E+02  0.00000000000E+00 0. -1.
         22    1    4    4    0    0 -0.16642661201E+02  0.39908575884E+01 -0.77383495648E+01  0.18782629479E+02  0.00000000000E+00 0. -1.
         22    1    4    4    0    0 -0.26039856793E+02  0.98958155970E+01 -0.37016811427E+02  0.46327590444E+02  0.00000000000E+00 0. -1.
<mgrwt>
<rscale>  0 0.92703538E+02</rscale>
<asrwt>0</asrwt>
<pdfrwt beam="1">  1        1 0.34070391E-02 0.92703538E+02</pdfrwt>
<pdfrwt beam="2">  1       -1 0.14925497E-01 0.92703538E+02</pdfrwt>
<totfact> 0.78400020E+04</totfact>
</mgrwt>
</event>
<event>
 7    1  0.3565607E-009  0.9831181E+02  0.7818608E-02  0.1283887E+00
         -1   -1    0    0    0  501 -0.00000000000E+00  0.00000000000E+00  0.44445964342E+02  0.44445964628E+02  0.50400000000E-02 0.  1.
          1   -1    0    0  501    0  0.00000000000E+00 -0.00000000000E+00 -0.54364953876E+02  0.54364954110E+02  0.50400000000E-02 0. -1.
         23    2    1    2    0    0  0.35527136788E-14 -0.44408920985E-15 -0.99189895346E+01  0.98810918738E+02  0.98311806556E+02 0.  0.
    9000005    2    3    3    0    0 -0.19135832807E+02  0.17791849251E+01 -0.50134393181E+02  0.54239355082E+02  0.76879557653E+01 0.  0.
         22    1    3    3    0    0  0.19135832807E+02 -0.17791849251E+01  0.40215403647E+02  0.44571563655E+02  0.00000000000E+00 0.  1.
         22    1    4    4    0    0 -0.10448498138E+02  0.31702695600E+01 -0.19302478703E+02  0.22176731195E+02  0.00000000000E+00 0. -1.
         22    1    4    4    0    0 -0.86873346687E+01 -0.13910846350E+01 -0.30831914478E+02  0.32062623887E+02  0.00000000000E+00 0. -1.
<mgrwt>
<rscale>  0 0.98311807E+02</rscale>
<asrwt>0</asrwt>
<pdfrwt beam="2">  1        1 0.83638391E-02 0.98311807E+02</pdfrwt>
<pdfrwt beam="1">  1       -1 0.68378407E-02 0.98311807E+02</pdfrwt>
<totfact> 0.76868915E+04</totfact>
</mgrwt>
</event>
<event>
 7    1  0.3565607E-009  0.9529334E+02  0.7818608E-02  0.1290517E+00
         -1   -1    0    0    0  501 -0.00000000000E+00  0.00000000000E+00  0.25212128951E+02  0.25212129455E+02  0.50400000000E-02 0.  1.
          1   -1    0    0  501    0  0.00000000000E+00 -0.00000000000E+00 -0.90044157049E+02  0.90044157190E+02  0.50400000000E-02 0. -1.
         23    2    1    2    0    0  0.00000000000E+00  0.00000000000E+00 -0.64832028098E+02  0.11525628664E+03  0.95293335254E+02 0.  0.
    9000005    2    3    3    0    0  0.28104316245E+02  0.14524321142E+02 -0.74970619421E+02  0.82035818102E+02  0.10415045801E+02 0.  0.
         22    1    3    3    0    0 -0.28104316245E+02 -0.14524321142E+02  0.10138591323E+02  0.33220468543E+02  0.00000000000E+00 0.  1.
         22    1    4    4    0    0  0.36651916346E+01  0.39052017197E+01 -0.23199241123E+02  0.23809431301E+02  0.00000000000E+00 0. -1.
         22    1    4    4    0    0  0.24439124610E+02  0.10619119422E+02 -0.51771378298E+02  0.58226386801E+02  0.00000000000E+00 0. -1.
<mgrwt>
<rscale>  0 0.95293335E+02</rscale>
<asrwt>0</asrwt>
<pdfrwt beam="2">  1        1 0.13852947E-01 0.95293335E+02</pdfrwt>
<pdfrwt beam="1">  1       -1 0.38787892E-02 0.95293335E+02</pdfrwt>
<totfact> 0.90948558E+04</totfact>
</mgrwt>
</event>
<event>
 7    1  0.3565607E-009  0.8829113E+02  0.7818608E-02  0.1307044E+00
          1   -1    0    0  501    0  0.00000000000E+00  0.00000000000E+00  0.30047053528E+01  0.30047095798E+01  0.50400000000E-02 0. -1.
         -1   -1    0    0    0  501 -0.00000000000E+00 -0.00000000000E+00 -0.64859254328E+03  0.64859254330E+03  0.50400000000E-02 0.  1.
         23    2    1    2    0    0  0.35527136788E-14  0.17763568394E-14 -0.64558783793E+03  0.65159725288E+03  0.88291129115E+02 0.  0.
    9000005    2    3    3    0    0  0.26092469693E+02  0.13643993347E+02 -0.56207174403E+03  0.56304267384E+03  0.15014379709E+02 0.  0.
         22    1    3    3    0    0 -0.26092469693E+02 -0.13643993347E+02 -0.83516093901E+02  0.88554579044E+02  0.00000000000E+00 0. -1.
         22    1    4    4    0    0  0.42449979911E+01  0.33743743405E+01 -0.34928026628E+02  0.35346477254E+02  0.00000000000E+00 0.  1.
         22    1    4    4    0    0  0.21847471702E+02  0.10269619007E+02 -0.52714371740E+03  0.52769619658E+03  0.00000000000E+00 0.  1.
<mgrwt>
<rscale>  0 0.88291129E+02</rscale>
<asrwt>0</asrwt>
<pdfrwt beam="1">  1        1 0.46226320E-03 0.88291129E+02</pdfrwt>
<pdfrwt beam="2">  1       -1 0.99783358E-01 0.88291129E+02</pdfrwt>
<totfact> 0.42678419E+04</totfact>
</mgrwt>
</event>
<event>
 7    1  0.3565607E-009  0.1176756E+03  0.7818608E-02  0.1246982E+00
         -1   -1    0    0    0  501 -0.00000000000E+00  0.00000000000E+00  0.62027130220E+02  0.62027130425E+02  0.50400000000E-02 0.  1.
          1   -1    0    0  501    0  0.00000000000E+00 -0.00000000000E+00 -0.55812449988E+02  0.55812450215E+02  0.50400000000E-02 0. -1.
         23    2    1    2    0    0 -0.71054273576E-14  0.00000000000E+00  0.62146802323E+01  0.11783958064E+03  0.11767559014E+03 0.  0.
    9000005    2    3    3    0    0 -0.38317306554E+02 -0.43615388831E+02  0.11813947042E+02  0.59514029522E+02  0.56420068110E+01 0.  0.
         22    1    3    3    0    0  0.38317306554E+02  0.43615388831E+02 -0.55992668093E+01  0.58325551118E+02  0.00000000000E+00 0.  1.
         22    1    4    4    0    0 -0.37663187046E+02 -0.43333034291E+02  0.11045233067E+02  0.58465927623E+02  0.00000000000E+00 0. -1.
         22    1    4    4    0    0 -0.65411950786E+00 -0.28235453997E+00  0.76871397412E+00  0.10481018991E+01  0.00000000000E+00 0. -1.
<mgrwt>
<rscale>  0 0.11767559E+03</rscale>
<asrwt>0</asrwt>
<pdfrwt beam="2">  1        1 0.85865308E-02 0.11767559E+03</pdfrwt>
<pdfrwt beam="1">  1       -1 0.95426354E-02 0.11767559E+03</pdfrwt>
<totfact> 0.46167628E+04</totfact>
</mgrwt>
</event>
<event>
 7    1  0.3565607E-009  0.9336213E+02  0.7818608E-02  0.1294908E+00
          1   -1    0    0  501    0  0.00000000000E+00  0.00000000000E+00  0.12669037938E+04  0.12669037938E+04  0.50400000000E-02 0. -1.
         -1   -1    0    0    0  501 -0.00000000000E+00 -0.00000000000E+00 -0.17200337570E+01  0.17200411410E+01  0.50400000000E-02 0.  1.
         23    2    1    2    0    0 -0.44408920985E-15  0.00000000000E+00  0.12651837600E+04  0.12686238349E+04  0.93362133272E+02 0.  0.
    9000005    2    3    3    0    0  0.22574827198E+01  0.15965800109E+02  0.12267649616E+04  0.12269584168E+04  0.14652043237E+02 0.  0.
         22    1    3    3    0    0 -0.22574827198E+01 -0.15965800109E+02  0.38418798372E+02  0.41665418151E+02  0.00000000000E+00 0.  1.
         22    1    4    4    0    0  0.22346186051E+01  0.13335284214E+02  0.48408720161E+03  0.48427599784E+03  0.00000000000E+00 0.  1.
         22    1    4    4    0    0  0.22864114689E-01  0.26305158953E+01  0.74267776003E+03  0.74268241893E+03  0.00000000000E+00 0.  1.
<mgrwt>
<rscale>  0 0.93362133E+02</rscale>
<asrwt>0</asrwt>
<pdfrwt beam="1">  1        1 0.19490807E+00 0.93362133E+02</pdfrwt>
<pdfrwt beam="2">  1       -1 0.26462142E-03 0.93362133E+02</pdfrwt>
<totfact> 0.11632345E+05</totfact>
</mgrwt>
</event>
<event>
 7    1  0.3565607E-009  0.9214569E+02  0.7818608E-02  0.1297737E+00
         -1   -1    0    0    0  501 -0.00000000000E+00  0.00000000000E+00  0.54337734161E+02  0.54337734394E+02  0.50400000000E-02 0.  1.
          1   -1    0    0  501    0  0.00000000000E+00 -0.00000000000E+00 -0.39065065121E+02  0.39065065446E+02  0.50400000000E-02 0. -1.
         23    2    1    2    0    0  0.00000000000E+00  0.00000000000E+00  0.15272669040E+02  0.93402799840E+02  0.92145692240E+02 0.  0.
    9000005    2    3    3    0    0 -0.30481309289E+01 -0.25759249646E+02  0.45589743029E+02  0.53503488822E+02  0.10553132346E+02 0.  0.
         22    1    3    3    0    0  0.30481309289E+01  0.25759249646E+02 -0.30317073989E+02  0.39899311018E+02  0.00000000000E+00 0. -1.
         22    1    4    4    0    0 -0.25420666833E+01 -0.65470121905E+01  0.50860554538E+01  0.86714146322E+01  0.00000000000E+00 0. -1.
         22    1    4    4    0    0 -0.50606424561E+00 -0.19212237455E+02  0.40503687575E+02  0.44832074190E+02  0.00000000000E+00 0. -1.
<mgrwt>
<rscale>  0 0.92145692E+02</rscale>
<asrwt>0</asrwt>
<pdfrwt beam="2">  1        1 0.60100101E-02 0.92145692E+02</pdfrwt>
<pdfrwt beam="1">  1       -1 0.83596514E-02 0.92145692E+02</pdfrwt>
<totfact> 0.87672329E+04</totfact>
</mgrwt>
</event>
<event>
 6    1  0.4488130E-009  0.1647401E+03  0.7818608E-02  0.1183447E+00
         -1   -1    0    0    0  501 -0.00000000000E+00  0.00000000000E+00  0.51615289813E+02  0.51615290059E+02  0.50400000000E-02 0.  1.
          1   -1    0    0  501    0  0.00000000000E+00 -0.00000000000E+00 -0.13144988018E+03  0.13144988028E+03  0.50400000000E-02 0. -1.
    9000005    2    1    2    0    0 -0.51464715952E+02 -0.12718883696E+02  0.28709371042E+02  0.62267080331E+02  0.15574797489E+02 0.  0.
         22    1    1    2    0    0  0.51464715952E+02  0.12718883696E+02 -0.10854396141E+03  0.12079809001E+03  0.00000000000E+00 0. -1.
         22    1    3    3    0    0 -0.34394046115E+02 -0.30486184905E+01  0.12184360551E+02  0.36615613130E+02  0.00000000000E+00 0. -1.
         22    1    3    3    0    0 -0.17070669837E+02 -0.96702652055E+01  0.16525010491E+02  0.25651467201E+02  0.00000000000E+00 0. -1.
<mgrwt>
<rscale>  0 0.16474008E+03</rscale>
<asrwt>0</asrwt>
<pdfrwt beam="2">  1        1 0.20223058E-01 0.16474008E+03</pdfrwt>
<pdfrwt beam="1">  1       -1 0.79408139E-02 0.16474008E+03</pdfrwt>
<totfact> 0.20697366E+04</totfact>
</mgrwt>
</event>
<event>
 7    1  0.3565607E-009  0.9183216E+02  0.7818608E-02  0.1298475E+00
         -1   -1    0    0    0  501 -0.00000000000E+00  0.00000000000E+00  0.23791585079E+02  0.23791585613E+02  0.50400000000E-02 0.  1.
          1   -1    0    0  501    0  0.00000000000E+00 -0.00000000000E+00 -0.88614798919E+02  0.88614799062E+02  0.50400000000E-02 0. -1.
         23    2    1    2    0    0  0.00000000000E+00 -0.35527136788E-14 -0.64823213840E+02  0.11240638468E+03  0.91832163556E+02 0.  0.
    9000005    2    3    3    0    0  0.37549292409E+02  0.25389355613E+02 -0.25071478721E+02  0.52117337712E+02  0.57505744046E+01 0.  0.
         22    1    3    3    0    0 -0.37549292409E+02 -0.25389355613E+02 -0.39751735118E+02  0.60289046964E+02  0.00000000000E+00 0.  1.
         22    1    4    4    0    0  0.26457273358E+02  0.20071010726E+02 -0.16191125561E+02  0.36945707897E+02  0.00000000000E+00 0.  1.
         22    1    4    4    0    0  0.11092019051E+02  0.53183448879E+01 -0.88803531604E+01  0.15171629815E+02  0.00000000000E+00 0.  1.
<mgrwt>
<rscale>  0 0.91832164E+02</rscale>
<asrwt>0</asrwt>
<pdfrwt beam="2">  1        1 0.13633046E-01 0.91832164E+02</pdfrwt>
<pdfrwt beam="1">  1       -1 0.36602439E-02 0.91832164E+02</pdfrwt>
<totfact> 0.10041321E+05</totfact>
</mgrwt>
</event>
<event>
 7    1  0.3565607E-009  0.9132057E+02  0.7818608E-02  0.1299685E+00
          1   -1    0    0  501    0  0.00000000000E+00  0.00000000000E+00  0.17124033399E+03  0.17124033407E+03  0.50400000000E-02 0. -1.
         -1   -1    0    0    0  501 -0.00000000000E+00 -0.00000000000E+00 -0.12175062220E+02  0.12175063263E+02  0.50400000000E-02 0.  1.
         23    2    1    2    0    0  0.88817841970E-15  0.00000000000E+00  0.15906527177E+03  0.18341539733E+03  0.91320574318E+02 0.  0.
    9000005    2    3    3    0    0 -0.73429899511E+01 -0.37184899295E+02  0.28851943681E+02  0.47797747116E+02  0.39438227876E+01 0.  0.
         22    1    3    3    0    0  0.73429899511E+01  0.37184899295E+02  0.13021332809E+03  0.13561765021E+03  0.00000000000E+00 0. -1.
         22    1    4    4    0    0 -0.37259318713E+01 -0.98882376769E+01  0.83644115906E+01  0.13476764965E+02  0.00000000000E+00 0. -1.
         22    1    4    4    0    0 -0.36170580797E+01 -0.27296661618E+02  0.20487532090E+02  0.34320982151E+02  0.00000000000E+00 0. -1.
<mgrwt>
<rscale>  0 0.91320574E+02</rscale>
<asrwt>0</asrwt>
<pdfrwt beam="1">  1        1 0.26344669E-01 0.91320574E+02</pdfrwt>
<pdfrwt beam="2">  1       -1 0.18730864E-02 0.91320574E+02</pdfrwt>
<totfact> 0.11444644E+05</totfact>
</mgrwt>
</event>
<event>
 7    1  0.3565607E-009  0.9027970E+02  0.7818608E-02  0.1302176E+00
          1   -1    0    0  501    0  0.00000000000E+00  0.00000000000E+00  0.26041058658E+03  0.26041058663E+03  0.50400000000E-02 0. -1.
         -1   -1    0    0    0  501 -0.00000000000E+00 -0.00000000000E+00 -0.78245883044E+01  0.78245899276E+01  0.50400000000E-02 0.  1.
         23    2    1    2    0    0  0.00000000000E+00 -0.35527136788E-14  0.25258599828E+03  0.26823517656E+03  0.90279695488E+02 0.  0.
    9000005    2    3    3    0    0  0.35767534885E+02  0.21044166774E+02  0.17346387117E+03  0.17889042571E+03  0.13780286668E+02 0.  0.
         22    1    3    3    0    0 -0.35767534885E+02 -0.21044166774E+02  0.79122127106E+02  0.89344750852E+02  0.00000000000E+00 0. -1.
         22    1    4    4    0    0  0.11403750286E+02  0.65161288866E+01  0.84470806111E+02  0.85485803157E+02  0.00000000000E+00 0. -1.
         22    1    4    4    0    0  0.24363784599E+02  0.14528037888E+02  0.88993065060E+02  0.93404622550E+02  0.00000000000E+00 0. -1.
<mgrwt>
<rscale>  0 0.90279695E+02</rscale>
<asrwt>0</asrwt>
<pdfrwt beam="1">  1        1 0.40063166E-01 0.90279695E+02</pdfrwt>
<pdfrwt beam="2">  1       -1 0.12037830E-02 0.90279695E+02</pdfrwt>
<totfact> 0.12798973E+05</totfact>
</mgrwt>
</event>
<event>
 7    1  0.3565607E-009  0.9239828E+02  0.7818608E-02  0.1297146E+00
         -1   -1    0    0    0  501 -0.00000000000E+00  0.00000000000E+00  0.30054475912E+02  0.30054476334E+02  0.50400000000E-02 0.  1.
          1   -1    0    0  501    0  0.00000000000E+00 -0.00000000000E+00 -0.71016396487E+02  0.71016396666E+02  0.50400000000E-02 0. -1.
         23    2    1    2    0    0  0.00000000000E+00  0.22204460493E-15 -0.40961920576E+02  0.10107087300E+03  0.92398281542E+02 0.  0.
    9000005    2    3    3    0    0  0.23942326867E+02  0.15460632174E+01 -0.63098416413E+02  0.68426581383E+02  0.11187562674E+02 0.  0.
         22    1    3    3    0    0 -0.23942326867E+02 -0.15460632174E+01  0.22136495838E+02  0.32644291618E+02  0.00000000000E+00 0.  1.
         22    1    4    4    0    0  0.14273141003E+02  0.63487346890E+01 -0.39449566080E+02  0.42429909853E+02  0.00000000000E+00 0. -1.
         22    1    4    4    0    0  0.96691858634E+01 -0.48026714716E+01 -0.23648850334E+02  0.25996671530E+02  0.00000000000E+00 0. -1.
<mgrwt>
<rscale>  0 0.92398282E+02</rscale>
<asrwt>0</asrwt>
<pdfrwt beam="2">  1        1 0.10925599E-01 0.92398282E+02</pdfrwt>
<pdfrwt beam="1">  1       -1 0.46237656E-02 0.92398282E+02</pdfrwt>
<totfact> 0.95318692E+04</totfact>
</mgrwt>
</event>
<event>
 7    1  0.3565607E-009  0.9463057E+02  0.7818608E-02  0.1292010E+00
          1   -1    0    0  501    0  0.00000000000E+00  0.00000000000E+00  0.11425087833E+04  0.11425087833E+04  0.50400000000E-02 0. -1.
         -1   -1    0    0    0  501 -0.00000000000E+00 -0.00000000000E+00 -0.19594881038E+01  0.19594945854E+01  0.50400000000E-02 0.  1.
         23    2    1    2    0    0  0.00000000000E+00  0.00000000000E+00  0.11405492952E+04  0.11444682779E+04  0.94630567676E+02 0.  0.
    9000005    2    3    3    0    0 -0.64155320306E+01  0.29736089261E+02  0.10083671530E+04  0.10088308466E+04  0.31571707573E+01 0.  0.
         22    1    3    3    0    0  0.64155320306E+01 -0.29736089261E+02  0.13218214220E+03  0.13563743131E+03  0.00000000000E+00 0.  1.
         22    1    4    4    0    0 -0.19916100413E+01  0.16287952242E+02  0.52436167638E+03  0.52461836754E+03  0.00000000000E+00 0. -1.
         22    1    4    4    0    0 -0.44239219893E+01  0.13448137019E+02  0.48400547659E+03  0.48421247903E+03  0.00000000000E+00 0. -1.
<mgrwt>
<rscale>  0 0.94630568E+02</rscale>
<asrwt>0</asrwt>
<pdfrwt beam="1">  1        1 0.17577046E+00 0.94630568E+02</pdfrwt>
<pdfrwt beam="2">  1       -1 0.30146041E-03 0.94630568E+02</pdfrwt>
<totfact> 0.11788026E+05</totfact>
</mgrwt>
</event>
<event>
 7    1  0.3565607E-009  0.1075337E+03  0.7818608E-02  0.1265206E+00
          1   -1    0    0  501    0  0.00000000000E+00  0.00000000000E+00  0.32814436450E+03  0.32814436453E+03  0.50400000000E-02 0. -1.
         -1   -1    0    0    0  501 -0.00000000000E+00 -0.00000000000E+00 -0.88097594021E+01  0.88097608438E+01  0.50400000000E-02 0.  1.
         23    2    1    2    0    0  0.00000000000E+00  0.71054273576E-14  0.31933460509E+03  0.33695412538E+03  0.10753368123E+03 0.  0.
    9000005    2    3    3    0    0  0.22295941978E+02 -0.46080734060E+02  0.12007125896E+03  0.13122025799E+03  0.13457555400E+02 0.  0.
         22    1    3    3    0    0 -0.22295941978E+02  0.46080734060E+02  0.19926334613E+03  0.20573386739E+03  0.00000000000E+00 0. -1.
         22    1    4    4    0    0  0.64682101317E+01 -0.12912253203E+02  0.20442876071E+02  0.25029486753E+02  0.00000000000E+00 0.  1.
         22    1    4    4    0    0  0.15827731846E+02 -0.33168480857E+02  0.99628382894E+02  0.10619077124E+03  0.00000000000E+00 0.  1.
<mgrwt>
<rscale>  0 0.10753368E+03</rscale>
<asrwt>0</asrwt>
<pdfrwt beam="1">  1        1 0.50483732E-01 0.10753368E+03</pdfrwt>
<pdfrwt beam="2">  1       -1 0.13553482E-02 0.10753368E+03</pdfrwt>
<totfact> 0.83667219E+04</totfact>
</mgrwt>
</event>
<event>
 7    1  0.3565607E-009  0.8990959E+02  0.7818608E-02  0.1303071E+00
          1   -1    0    0  501    0  0.00000000000E+00  0.00000000000E+00  0.19152902944E+02  0.19152903607E+02  0.50400000000E-02 0. -1.
         -1   -1    0    0    0  501 -0.00000000000E+00 -0.00000000000E+00 -0.10551577122E+03  0.10551577134E+03  0.50400000000E-02 0.  1.
         23    2    1    2    0    0 -0.17763568394E-14  0.00000000000E+00 -0.86362868278E+02  0.12466867495E+03  0.89909585119E+02 0.  0.
    9000005    2    3    3    0    0 -0.12533684604E+02  0.40997477186E+02 -0.25689244357E+02  0.50377524567E+02  0.63301911952E+01 0.  0.
         22    1    3    3    0    0  0.12533684604E+02 -0.40997477186E+02 -0.60673623921E+02  0.74291150382E+02  0.00000000000E+00 0.  1.
         22    1    4    4    0    0 -0.62287765746E+01  0.13292885645E+02 -0.11321217416E+02  0.18538296312E+02  0.00000000000E+00 0. -1.
         22    1    4    4    0    0 -0.63049080292E+01  0.27704591541E+02 -0.14368026941E+02  0.31839228255E+02  0.00000000000E+00 0. -1.
<mgrwt>
<rscale>  0 0.89909585E+02</rscale>
<asrwt>0</asrwt>
<pdfrwt beam="1">  1        1 0.29466006E-02 0.89909585E+02</pdfrwt>
<pdfrwt beam="2">  1       -1 0.16233195E-01 0.89909585E+02</pdfrwt>
<totfact> 0.83508526E+04</totfact>
</mgrwt>
</event>
<event>
 7    1  0.3565607E-009  0.9108014E+02  0.7818608E-02  0.1300257E+00
         -1   -1    0    0    0  501 -0.00000000000E+00  0.00000000000E+00  0.37038286491E+02  0.37038286834E+02  0.50400000000E-02 0.  1.
          1   -1    0    0  501    0  0.00000000000E+00 -0.00000000000E+00 -0.55993349885E+02  0.55993350112E+02  0.50400000000E-02 0. -1.
         23    2    1    2    0    0  0.00000000000E+00  0.17763568394E-14 -0.18955063394E+02  0.93031636946E+02  0.91080135291E+02 0.  0.
    9000005    2    3    3    0    0 -0.40656570390E+02 -0.11179222013E+02  0.64274879438E+01  0.43815728612E+02  0.10028646563E+02 0.  0.
         22    1    3    3    0    0  0.40656570390E+02  0.11179222013E+02 -0.25382551338E+02  0.49215908334E+02  0.00000000000E+00 0. -1.
         22    1    4    4    0    0 -0.20074536924E+02 -0.65356864757E+00  0.12391594958E+01  0.20123362068E+02  0.00000000000E+00 0.  1.
         22    1    4    4    0    0 -0.20582033466E+02 -0.10525653365E+02  0.51883284480E+01  0.23692366544E+02  0.00000000000E+00 0.  1.
<mgrwt>
<rscale>  0 0.91080135E+02</rscale>
<asrwt>0</asrwt>
<pdfrwt beam="2">  1        1 0.86143616E-02 0.91080135E+02</pdfrwt>
<pdfrwt beam="1">  1       -1 0.56981980E-02 0.91080135E+02</pdfrwt>
<totfact> 0.95653749E+04</totfact>
</mgrwt>
</event>
<event>
 7    1  0.3565607E-009  0.9007890E+02  0.7818608E-02  0.1302661E+00
          1   -1    0    0  501    0  0.00000000000E+00  0.00000000000E+00  0.73080294204E+01  0.73080311583E+01  0.50400000000E-02 0. -1.
         -1   -1    0    0    0  501 -0.00000000000E+00 -0.00000000000E+00 -0.27757846689E+03  0.27757846694E+03  0.50400000000E-02 0.  1.
         23    2    1    2    0    0  0.00000000000E+00 -0.35527136788E-14 -0.27027043747E+03  0.28488649809E+03  0.90078895566E+02 0.  0.
    9000005    2    3    3    0    0  0.33742138165E+02 -0.25989809101E+02 -0.17940157156E+03  0.18453136441E+03  0.72731360332E+01 0.  0.
         22    1    3    3    0    0 -0.33742138165E+02  0.25989809101E+02 -0.90868865913E+02  0.10035513369E+03  0.00000000000E+00 0. -1.
         22    1    4    4    0    0  0.49195787476E+01 -0.16771030849E+01 -0.29862773731E+02  0.30311716954E+02  0.00000000000E+00 0. -1.
         22    1    4    4    0    0  0.28822559418E+02 -0.24312706016E+02 -0.14953879783E+03  0.15421964745E+03  0.00000000000E+00 0. -1.
<mgrwt>
<rscale>  0 0.90078896E+02</rscale>
<asrwt>0</asrwt>
<pdfrwt beam="1">  1        1 0.11243126E-02 0.90078896E+02</pdfrwt>
<pdfrwt beam="2">  1       -1 0.42704371E-01 0.90078896E+02</pdfrwt>
<totfact> 0.64414284E+04</totfact>
</mgrwt>
</event>
<event>
 7    1  0.3565607E-009  0.9188576E+02  0.7818608E-02  0.1298348E+00
          1   -1    0    0  501    0  0.00000000000E+00  0.00000000000E+00  0.36285920025E+03  0.36285920029E+03  0.50400000000E-02 0. -1.
         -1   -1    0    0    0  501 -0.00000000000E+00 -0.00000000000E+00 -0.58169879308E+01  0.58169901141E+01  0.50400000000E-02 0.  1.
         23    2    1    2    0    0  0.00000000000E+00  0.71054273576E-14  0.35704221232E+03  0.36867619040E+03  0.91885755096E+02 0.  0.
    9000005    2    3    3    0    0  0.23979917704E+02  0.34599137549E+02  0.25115968436E+03  0.25473214053E+03  0.59278665804E+01 0.  0.
         22    1    3    3    0    0 -0.23979917704E+02 -0.34599137549E+02  0.10588252796E+03  0.11394404987E+03  0.00000000000E+00 0. -1.
         22    1    4    4    0    0  0.14270479943E+02  0.16545912925E+02  0.11839558936E+03  0.12039488947E+03  0.00000000000E+00 0.  1.
         22    1    4    4    0    0  0.97094377608E+01  0.18053224624E+02  0.13276409500E+03  0.13433725106E+03  0.00000000000E+00 0.  1.
<mgrwt>
<rscale>  0 0.91885755E+02</rscale>
<asrwt>0</asrwt>
<pdfrwt beam="1">  1        1 0.55824487E-01 0.91885755E+02</pdfrwt>
<pdfrwt beam="2">  1       -1 0.89492149E-03 0.91885755E+02</pdfrwt>
<totfact> 0.12996963E+05</totfact>
</mgrwt>
</event>
<event>
 7    1  0.3565607E-009  0.8964088E+02  0.7818608E-02  0.1303724E+00
         -1   -1    0    0    0  501 -0.00000000000E+00  0.00000000000E+00  0.44977666848E+02  0.44977667130E+02  0.50400000000E-02 0.  1.
          1   -1    0    0  501    0  0.00000000000E+00 -0.00000000000E+00 -0.44663760813E+02  0.44663761097E+02  0.50400000000E-02 0. -1.
         23    2    1    2    0    0  0.00000000000E+00  0.00000000000E+00  0.31390603531E+00  0.89641428228E+02  0.89640878608E+02 0.  0.
    9000005    2    3    3    0    0  0.27549474776E+02 -0.35035058855E+02  0.27549747357E+01  0.45005257628E+02  0.56084239217E+01 0.  0.
         22    1    3    3    0    0 -0.27549474776E+02  0.35035058855E+02 -0.24410687004E+01  0.44636170600E+02  0.00000000000E+00 0. -1.
         22    1    4    4    0    0  0.22304440663E+02 -0.25181943312E+02  0.64688553187E+00  0.33645754608E+02  0.00000000000E+00 0.  1.
         22    1    4    4    0    0  0.52450341134E+01 -0.98531155427E+01  0.21080892039E+01  0.11359503019E+02  0.00000000000E+00 0.  1.
<mgrwt>
<rscale>  0 0.89640879E+02</rscale>
<asrwt>0</asrwt>
<pdfrwt beam="2">  1        1 0.68713479E-02 0.89640879E+02</pdfrwt>
<pdfrwt beam="1">  1       -1 0.69196411E-02 0.89640879E+02</pdfrwt>
<totfact> 0.96684648E+04</totfact>
</mgrwt>
</event>
<event>
 7    1  0.3565607E-009  0.8767849E+02  0.7818608E-02  0.1308573E+00
         -1   -1    0    0    0  501 -0.00000000000E+00  0.00000000000E+00  0.19893385277E+02  0.19893385916E+02  0.50400000000E-02 0.  1.
          1   -1    0    0  501    0  0.00000000000E+00 -0.00000000000E+00 -0.96608972554E+02  0.96608972686E+02  0.50400000000E-02 0. -1.
         23    2    1    2    0    0  0.00000000000E+00  0.00000000000E+00 -0.76715587277E+02  0.11650235860E+03  0.87678493534E+02 0.  0.
    9000005    2    3    3    0    0  0.18089681274E+02 -0.30400641639E+02 -0.71895830352E+02  0.80799898778E+02  0.10400848031E+02 0.  0.
         22    1    3    3    0    0 -0.18089681274E+02  0.30400641639E+02 -0.48197569245E+01  0.35702459824E+02  0.00000000000E+00 0. -1.
         22    1    4    4    0    0  0.29796073425E+01 -0.16675250279E+00 -0.44360192977E+01  0.53464131455E+01  0.00000000000E+00 0. -1.
         22    1    4    4    0    0  0.15110073931E+02 -0.30233889136E+02 -0.67459811055E+02  0.75453485632E+02  0.00000000000E+00 0. -1.
<mgrwt>
<rscale>  0 0.87678494E+02</rscale>
<asrwt>0</asrwt>
<pdfrwt beam="2">  1        1 0.14862919E-01 0.87678494E+02</pdfrwt>
<pdfrwt beam="1">  1       -1 0.30605209E-02 0.87678494E+02</pdfrwt>
<totfact> 0.11551700E+05</totfact>
</mgrwt>
</event>
<event>
 7    1  0.3565607E-009  0.9299340E+02  0.7818608E-02  0.1295760E+00
          1   -1    0    0  501    0  0.00000000000E+00  0.00000000000E+00  0.76544489143E+03  0.76544489145E+03  0.50400000000E-02 0. -1.
         -1   -1    0    0    0  501 -0.00000000000E+00 -0.00000000000E+00 -0.28244245673E+01  0.28244290641E+01  0.50400000000E-02 0.  1.
         23    2    1    2    0    0  0.00000000000E+00 -0.17763568394E-14  0.76262046687E+03  0.76826932052E+03  0.92993399551E+02 0.  0.
    9000005    2    3    3    0    0 -0.86501479860E+00  0.10451343066E+02  0.75545815630E+03  0.75556981205E+03  0.76639511056E+01 0.  0.
         22    1    3    3    0    0  0.86501479860E+00 -0.10451343066E+02  0.71623105698E+01  0.12699508462E+02  0.00000000000E+00 0.  1.
         22    1    4    4    0    0  0.15470616418E+01  0.67817473043E-02  0.21379513802E+03  0.21380073547E+03  0.00000000000E+00 0. -1.
         22    1    4    4    0    0 -0.24120764404E+01  0.10444561319E+02  0.54166301828E+03  0.54176907658E+03  0.00000000000E+00 0. -1.
<mgrwt>
<rscale>  0 0.92993400E+02</rscale>
<asrwt>0</asrwt>
<pdfrwt beam="1">  1        1 0.11776071E+00 0.92993400E+02</pdfrwt>
<pdfrwt beam="2">  1       -1 0.43452737E-03 0.92993400E+02</pdfrwt>
<totfact> 0.13454360E+05</totfact>
</mgrwt>
</event>
<event>
 7    1  0.3565607E-009  0.9434266E+02  0.7818608E-02  0.1292663E+00
         -1   -1    0    0    0  501 -0.00000000000E+00  0.00000000000E+00  0.31145861157E+02  0.31145861565E+02  0.50400000000E-02 0.  1.
          1   -1    0    0  501    0  0.00000000000E+00 -0.00000000000E+00 -0.71442375290E+02  0.71442375468E+02  0.50400000000E-02 0. -1.
         23    2    1    2    0    0 -0.35527136788E-14  0.00000000000E+00 -0.40296514133E+02  0.10258823703E+03  0.94342659101E+02 0.  0.
    9000005    2    3    3    0    0  0.31773957950E+02  0.93175497304E+01 -0.55676641705E+02  0.66078656633E+02  0.13042212010E+02 0.  0.
         22    1    3    3    0    0 -0.31773957950E+02 -0.93175497304E+01  0.15380127572E+02  0.36509580399E+02  0.00000000000E+00 0.  1.
         22    1    4    4    0    0  0.23881336461E+02  0.12307696347E+02 -0.45686724492E+02  0.53000702027E+02  0.00000000000E+00 0. -1.
         22    1    4    4    0    0  0.78926214891E+01 -0.29901466169E+01 -0.99899172132E+01  0.13077954606E+02  0.00000000000E+00 0. -1.
<mgrwt>
<rscale>  0 0.94342659E+02</rscale>
<asrwt>0</asrwt>
<pdfrwt beam="2">  1        1 0.10991135E-01 0.94342659E+02</pdfrwt>
<pdfrwt beam="1">  1       -1 0.47916710E-02 0.94342659E+02</pdfrwt>
<totfact> 0.90064352E+04</totfact>
</mgrwt>
</event>
<event>
 7    1  0.3565607E-009  0.9058269E+02  0.7818608E-02  0.1301447E+00
         -1   -1    0    0    0  501 -0.00000000000E+00  0.00000000000E+00  0.79991572828E+02  0.79991572987E+02  0.50400000000E-02 0.  1.
          1   -1    0    0  501    0  0.00000000000E+00 -0.00000000000E+00 -0.25644025816E+02  0.25644026311E+02  0.50400000000E-02 0. -1.
         23    2    1    2    0    0  0.00000000000E+00  0.00000000000E+00  0.54347547012E+02  0.10563559930E+03  0.90582691353E+02 0.  0.
    9000005    2    3    3    0    0  0.33508158373E+02  0.11310039945E+02  0.59026261818E+02  0.69962022896E+02  0.12644025558E+02 0.  0.
         22    1    3    3    0    0 -0.33508158373E+02 -0.11310039945E+02 -0.46787148063E+01  0.35673576402E+02  0.00000000000E+00 0. -1.
         22    1    4    4    0    0  0.22599264184E+02  0.46438213636E+01  0.47243036435E+02  0.52575624677E+02  0.00000000000E+00 0.  1.
         22    1    4    4    0    0  0.10908894189E+02  0.66662185816E+01  0.11783225383E+02  0.17386398219E+02  0.00000000000E+00 0.  1.
<mgrwt>
<rscale>  0 0.90582691E+02</rscale>
<asrwt>0</asrwt>
<pdfrwt beam="2">  1        1 0.39452348E-02 0.90582691E+02</pdfrwt>
<pdfrwt beam="1">  1       -1 0.12306396E-01 0.90582691E+02</pdfrwt>
<totfact> 0.86079820E+04</totfact>
</mgrwt>
</event>
<event>
 7    1  0.3565607E-009  0.9016453E+02  0.7818608E-02  0.1302454E+00
         -1   -1    0    0    0  501 -0.00000000000E+00  0.00000000000E+00  0.15782693521E+02  0.15782694326E+02  0.50400000000E-02 0.  1.
          1   -1    0    0  501    0  0.00000000000E+00 -0.00000000000E+00 -0.12877464533E+03  0.12877464543E+03  0.50400000000E-02 0. -1.
         23    2    1    2    0    0  0.00000000000E+00  0.00000000000E+00 -0.11299195181E+03  0.14455733976E+03  0.90164534622E+02 0.  0.
    9000005    2    3    3    0    0 -0.12569836164E+02 -0.39474586262E+02 -0.83813155084E+02  0.93885395644E+02  0.85778090625E+01 0.  0.
         22    1    3    3    0    0  0.12569836164E+02  0.39474586262E+02 -0.29178796726E+02  0.50671944113E+02  0.00000000000E+00 0.  1.
         22    1    4    4    0    0 -0.11963990633E+02 -0.24795746014E+02 -0.57413340236E+02  0.63673053400E+02  0.00000000000E+00 0.  1.
         22    1    4    4    0    0 -0.60584553140E+00 -0.14678840248E+02 -0.26399814847E+02  0.30212342243E+02  0.00000000000E+00 0.  1.
<mgrwt>
<rscale>  0 0.90164535E+02</rscale>
<asrwt>0</asrwt>
<pdfrwt beam="2">  1        1 0.19811483E-01 0.90164535E+02</pdfrwt>
<pdfrwt beam="1">  1       -1 0.24281068E-02 0.90164535E+02</pdfrwt>
<totfact> 0.11242656E+05</totfact>
</mgrwt>
</event>
<event>
 7    1  0.3565607E-009  0.8570609E+02  0.7818608E-02  0.1313596E+00
          1   -1    0    0  501    0  0.00000000000E+00  0.00000000000E+00  0.70698755530E+02  0.70698755709E+02  0.50400000000E-02 0. -1.
         -1   -1    0    0    0  501 -0.00000000000E+00 -0.00000000000E+00 -0.25974764382E+02  0.25974764871E+02  0.50400000000E-02 0.  1.
         23    2    1    2    0    0 -0.88817841970E-15  0.00000000000E+00  0.44723991147E+02  0.96673520580E+02  0.85706091950E+02 0.  0.
    9000005    2    3    3    0    0 -0.66267176742E+01  0.40805195804E+02  0.18475859928E+02  0.47704736807E+02  0.15013564603E+02 0.  0.
         22    1    3    3    0    0  0.66267176742E+01 -0.40805195804E+02  0.26248131219E+02  0.48968783773E+02  0.00000000000E+00 0.  1.
         22    1    4    4    0    0 -0.30505028988E+01  0.16735852093E+01 -0.12999506919E+01  0.37143407477E+01  0.00000000000E+00 0.  1.
         22    1    4    4    0    0 -0.35762147754E+01  0.39131610594E+02  0.19775810620E+02  0.43990396060E+02  0.00000000000E+00 0.  1.
<mgrwt>
<rscale>  0 0.85706092E+02</rscale>
<asrwt>0</asrwt>
<pdfrwt beam="1">  1        1 0.10876732E-01 0.85706092E+02</pdfrwt>
<pdfrwt beam="2">  1       -1 0.39961177E-02 0.85706092E+02</pdfrwt>
<totfact> 0.11709416E+05</totfact>
</mgrwt>
</event>
<event>
 7    1  0.3565607E-009  0.9008554E+02  0.7818608E-02  0.1302645E+00
         -1   -1    0    0    0  501 -0.00000000000E+00  0.00000000000E+00  0.16734499541E+03  0.16734499549E+03  0.50400000000E-02 0.  1.
          1   -1    0    0  501    0  0.00000000000E+00 -0.00000000000E+00 -0.12123763320E+02  0.12123764368E+02  0.50400000000E-02 0. -1.
         23    2    1    2    0    0 -0.35527136788E-14  0.00000000000E+00  0.15522123209E+03  0.17946875986E+03  0.90085541971E+02 0.  0.
    9000005    2    3    3    0    0  0.17495261983E+02  0.30763710838E+02  0.28818818515E+02  0.48205435754E+02  0.15516109024E+02 0.  0.
         22    1    3    3    0    0 -0.17495261983E+02 -0.30763710838E+02  0.12640241358E+03  0.13126332410E+03  0.00000000000E+00 0.  1.
         22    1    4    4    0    0  0.15141261514E+02  0.30079190638E+02  0.20254322093E+02  0.39296985548E+02  0.00000000000E+00 0. -1.
         22    1    4    4    0    0  0.23540004687E+01  0.68452019968E+00  0.85644964218E+01  0.89084502058E+01  0.00000000000E+00 0. -1.
<mgrwt>
<rscale>  0 0.90085542E+02</rscale>
<asrwt>0</asrwt>
<pdfrwt beam="2">  1        1 0.18651946E-02 0.90085542E+02</pdfrwt>
<pdfrwt beam="1">  1       -1 0.25745382E-01 0.90085542E+02</pdfrwt>
<totfact> 0.75141229E+04</totfact>
</mgrwt>
</event>
<event>
 7    1  0.3565607E-009  0.9173736E+02  0.7818608E-02  0.1298698E+00
          1   -1    0    0  501    0  0.00000000000E+00  0.00000000000E+00  0.22270187472E+02  0.22270188042E+02  0.50400000000E-02 0. -1.
         -1   -1    0    0    0  501 -0.00000000000E+00 -0.00000000000E+00 -0.94473193819E+02  0.94473193953E+02  0.50400000000E-02 0.  1.
         23    2    1    2    0    0  0.35527136788E-14  0.00000000000E+00 -0.72203006347E+02  0.11674338200E+03  0.91737359425E+02 0.  0.
    9000005    2    3    3    0    0  0.17521937184E+02 -0.41600923052E+02 -0.43609479957E+02  0.63308890954E+02  0.82809329326E+01 0.  0.
         22    1    3    3    0    0 -0.17521937184E+02  0.41600923052E+02 -0.28593526390E+02  0.53434491042E+02  0.00000000000E+00 0. -1.
         22    1    4    4    0    0  0.15579379801E+02 -0.40972145559E+02 -0.41289771547E+02  0.60218593649E+02  0.00000000000E+00 0.  1.
         22    1    4    4    0    0  0.19425573831E+01 -0.62877749251E+00 -0.23197084100E+01  0.30902973043E+01  0.00000000000E+00 0.  1.
<mgrwt>
<rscale>  0 0.91737359E+02</rscale>
<asrwt>0</asrwt>
<pdfrwt beam="1">  1        1 0.34261828E-02 0.91737359E+02</pdfrwt>
<pdfrwt beam="2">  1       -1 0.14534337E-01 0.91737359E+02</pdfrwt>
<totfact> 0.80936912E+04</totfact>
</mgrwt>
</event>
<event>
 7    1  0.3565607E-009  0.9371723E+02  0.7818608E-02  0.1294092E+00
          1   -1    0    0  501    0  0.00000000000E+00  0.00000000000E+00  0.80243106885E+01  0.80243122713E+01  0.50400000000E-02 0. -1.
         -1   -1    0    0    0  501 -0.00000000000E+00 -0.00000000000E+00 -0.27363468321E+03  0.27363468326E+03  0.50400000000E-02 0.  1.
         23    2    1    2    0    0 -0.71054273576E-14 -0.17763568394E-14 -0.26561037252E+03  0.28165899553E+03  0.93717233051E+02 0.  0.
    9000005    2    3    3    0    0 -0.39504298353E+02 -0.13599024015E+02 -0.19084275587E+03  0.19601018034E+03  0.15922006410E+02 0.  0.
         22    1    3    3    0    0  0.39504298353E+02  0.13599024015E+02 -0.74767616652E+02  0.85648815184E+02  0.00000000000E+00 0.  1.
         22    1    4    4    0    0 -0.36524143257E+02 -0.87194245244E+01 -0.17850657006E+03  0.18241336837E+03  0.00000000000E+00 0.  1.
         22    1    4    4    0    0 -0.29801550964E+01 -0.48795994910E+01 -0.12336185808E+02  0.13596811975E+02  0.00000000000E+00 0.  1.
<mgrwt>
<rscale>  0 0.93717233E+02</rscale>
<asrwt>0</asrwt>
<pdfrwt beam="1">  1        1 0.12345097E-02 0.93717233E+02</pdfrwt>
<pdfrwt beam="2">  1       -1 0.42097636E-01 0.93717233E+02</pdfrwt>
<totfact> 0.58383309E+04</totfact>
</mgrwt>
</event>
<event>
 7    1  0.3565607E-009  0.9093882E+02  0.7818608E-02  0.1300594E+00
         -1   -1    0    0    0  501 -0.00000000000E+00  0.00000000000E+00  0.20892188909E+02  0.20892189517E+02  0.50400000000E-02 0.  1.
          1   -1    0    0  501    0  0.00000000000E+00 -0.00000000000E+00 -0.98958859868E+02  0.98958859997E+02  0.50400000000E-02 0. -1.
         23    2    1    2    0    0  0.00000000000E+00  0.00000000000E+00 -0.78066670959E+02  0.11985104951E+03  0.90938819845E+02 0.  0.
    9000005    2    3    3    0    0  0.41280240252E+02 -0.13210255249E+02 -0.50804912992E+02  0.68647802288E+02  0.15900078484E+02 0.  0.
         22    1    3    3    0    0 -0.41280240252E+02  0.13210255249E+02 -0.27261757967E+02  0.51203247226E+02  0.00000000000E+00 0. -1.
         22    1    4    4    0    0  0.27913699745E+02 -0.83940334967E+00 -0.29578141403E+02  0.40678565367E+02  0.00000000000E+00 0. -1.
         22    1    4    4    0    0  0.13366540506E+02 -0.12370851900E+02 -0.21226771589E+02  0.27969236921E+02  0.00000000000E+00 0. -1.
<mgrwt>
<rscale>  0 0.90938820E+02</rscale>
<asrwt>0</asrwt>
<pdfrwt beam="2">  1        1 0.15224440E-01 0.90938820E+02</pdfrwt>
<pdfrwt beam="1">  1       -1 0.32141830E-02 0.90938820E+02</pdfrwt>
<totfact> 0.10501629E+05</totfact>
</mgrwt>
</event>
<event>
 7    1  0.3565607E-009  0.9350182E+02  0.7818608E-02  0.1294586E+00
         -1   -1    0    0    0  501 -0.00000000000E+00  0.00000000000E+00  0.83322368241E+01  0.83322383484E+01  0.50400000000E-02 0.  1.
          1   -1    0    0  501    0  0.00000000000E+00 -0.00000000000E+00 -0.26231222720E+03  0.26231222725E+03  0.50400000000E-02 0. -1.
         23    2    1    2    0    0  0.00000000000E+00  0.00000000000E+00 -0.25397999038E+03  0.27064446560E+03  0.93501824832E+02 0.  0.
    9000005    2    3    3    0    0 -0.81227518362E+01  0.36962083313E+02 -0.55780305306E+02  0.68864164621E+02  0.14094538257E+02 0.  0.
         22    1    3    3    0    0  0.81227518362E+01 -0.36962083313E+02 -0.19819968507E+03  0.20178030098E+03  0.00000000000E+00 0. -1.
         22    1    4    4    0    0  0.10195275374E+01  0.23589797219E+02 -0.38618643248E+02  0.45264970734E+02  0.00000000000E+00 0.  1.
         22    1    4    4    0    0 -0.91422793736E+01  0.13372286094E+02 -0.17161662059E+02  0.23599193887E+02  0.00000000000E+00 0.  1.
<mgrwt>
<rscale>  0 0.93501825E+02</rscale>
<asrwt>0</asrwt>
<pdfrwt beam="2">  1        1 0.40355721E-01 0.93501825E+02</pdfrwt>
<pdfrwt beam="1">  1       -1 0.12818829E-02 0.93501825E+02</pdfrwt>
<totfact> 0.11670489E+05</totfact>
</mgrwt>
</event>
<event>
 7    1  0.3565607E-009  0.9392643E+02  0.7818608E-02  0.1293613E+00
          1   -1    0    0  501    0  0.00000000000E+00  0.00000000000E+00  0.35362545700E+03  0.35362545704E+03  0.50400000000E-02 0. -1.
         -1   -1    0    0    0  501 -0.00000000000E+00 -0.00000000000E+00 -0.62369467738E+01  0.62369488102E+01  0.50400000000E-02 0.  1.
         23    2    1    2    0    0  0.00000000000E+00 -0.71054273576E-14  0.34738851023E+03  0.35986240585E+03  0.93926429211E+02 0.  0.
    9000005    2    3    3    0    0  0.87759692493E+01 -0.45912405674E+02  0.19022137443E+03  0.19589144743E+03  0.20787624457E+01 0.  0.
         22    1    3    3    0    0 -0.87759692493E+01  0.45912405674E+02  0.15716713580E+03  0.16397095842E+03  0.00000000000E+00 0.  1.
         22    1    4    4    0    0  0.37910218646E+01 -0.25302253662E+02  0.10347680921E+03  0.10659280431E+03  0.00000000000E+00 0. -1.
         22    1    4    4    0    0  0.49849473847E+01 -0.20610152012E+02  0.86744565223E+02  0.89298643115E+02  0.00000000000E+00 0. -1.
<mgrwt>
<rscale>  0 0.93926429E+02</rscale>
<asrwt>0</asrwt>
<pdfrwt beam="1">  1        1 0.54403910E-01 0.93926429E+02</pdfrwt>
<pdfrwt beam="2">  1       -1 0.95953055E-03 0.93926429E+02</pdfrwt>
<totfact> 0.12202307E+05</totfact>
</mgrwt>
</event>
<event>
 7    1  0.3565607E-009  0.8310568E+02  0.7818608E-02  0.1320462E+00
          1   -1    0    0  501    0  0.00000000000E+00  0.00000000000E+00  0.95497838934E+02  0.95497839067E+02  0.50400000000E-02 0. -1.
         -1   -1    0    0    0  501 -0.00000000000E+00 -0.00000000000E+00 -0.18080391974E+02  0.18080392677E+02  0.50400000000E-02 0.  1.
         23    2    1    2    0    0  0.00000000000E+00  0.17763568394E-14  0.77417446959E+02  0.11357823174E+03  0.83105677497E+02 0.  0.
    9000005    2    3    3    0    0 -0.11433852377E+02  0.15135685670E+02 -0.97920931853E+01  0.24329557506E+02  0.11671346051E+02 0.  0.
         22    1    3    3    0    0  0.11433852377E+02 -0.15135685670E+02  0.87209540144E+02  0.89248674237E+02  0.00000000000E+00 0. -1.
         22    1    4    4    0    0 -0.86052752117E+01  0.72966281655E+01  0.24331234228E+00  0.11284978731E+02  0.00000000000E+00 0.  1.
         22    1    4    4    0    0 -0.28285771652E+01  0.78390575042E+01 -0.10035405528E+02  0.13044578776E+02  0.00000000000E+00 0.  1.
<mgrwt>
<rscale>  0 0.83105677E+02</rscale>
<asrwt>0</asrwt>
<pdfrwt beam="1">  1        1 0.14691975E-01 0.83105677E+02</pdfrwt>
<pdfrwt beam="2">  1       -1 0.27815989E-02 0.83105677E+02</pdfrwt>
<totfact> 0.13327573E+05</totfact>
</mgrwt>
</event>
<event>
 7    1  0.3565607E-009  0.9861752E+02  0.7818608E-02  0.1283230E+00
          1   -1    0    0  501    0  0.00000000000E+00  0.00000000000E+00  0.16541311911E+03  0.16541311918E+03  0.50400000000E-02 0. -1.
         -1   -1    0    0    0  501 -0.00000000000E+00 -0.00000000000E+00 -0.14698674372E+02  0.14698675236E+02  0.50400000000E-02 0.  1.
         23    2    1    2    0    0  0.00000000000E+00  0.00000000000E+00  0.15071444473E+03  0.18011179442E+03  0.98617516888E+02 0.  0.
    9000005    2    3    3    0    0  0.47107136571E+02  0.53890293447E+01  0.63196683693E+02  0.80575457079E+02  0.15825912312E+02 0.  0.
         22    1    3    3    0    0 -0.47107136571E+02 -0.53890293447E+01  0.87517761041E+02  0.99536337339E+02  0.00000000000E+00 0.  1.
         22    1    4    4    0    0  0.45486576053E+02  0.12126943685E+01  0.57262117553E+02  0.73139929828E+02  0.00000000000E+00 0.  1.
         22    1    4    4    0    0  0.16205605181E+01  0.41763349762E+01  0.59345661398E+01  0.74355272506E+01  0.00000000000E+00 0.  1.
<mgrwt>
<rscale>  0 0.98617517E+02</rscale>
<asrwt>0</asrwt>
<pdfrwt beam="1">  1        1 0.25448171E-01 0.98617517E+02</pdfrwt>
<pdfrwt beam="2">  1       -1 0.22613347E-02 0.98617517E+02</pdfrwt>
<totfact> 0.92348175E+04</totfact>
</mgrwt>
</event>
<event>
 7    1  0.3565607E-009  0.9146648E+02  0.7818608E-02  0.1299339E+00
         -1   -1    0    0    0  501 -0.00000000000E+00  0.00000000000E+00  0.58787235095E+02  0.58787235311E+02  0.50400000000E-02 0.  1.
          1   -1    0    0  501    0  0.00000000000E+00 -0.00000000000E+00 -0.35577949272E+02  0.35577949629E+02  0.50400000000E-02 0. -1.
         23    2    1    2    0    0  0.00000000000E+00  0.00000000000E+00  0.23209285824E+02  0.94365184940E+02  0.91466481185E+02 0.  0.
    9000005    2    3    3    0    0  0.41041126555E+02  0.10470326680E+02 -0.16040997527E+01  0.45276429472E+02  0.15917918207E+02 0.  0.
         22    1    3    3    0    0 -0.41041126555E+02 -0.10470326680E+02  0.24813385576E+02  0.49088755468E+02  0.00000000000E+00 0.  1.
         22    1    4    4    0    0  0.35632727385E+01 -0.70988930244E+00 -0.48183038228E+01  0.60346422562E+01  0.00000000000E+00 0. -1.
         22    1    4    4    0    0  0.37477853816E+02  0.11180215982E+02  0.32142040701E+01  0.39241787216E+02  0.00000000000E+00 0. -1.
<mgrwt>
<rscale>  0 0.91466481E+02</rscale>
<asrwt>0</asrwt>
<pdfrwt beam="2">  1        1 0.54735307E-02 0.91466481E+02</pdfrwt>
<pdfrwt beam="1">  1       -1 0.90441901E-02 0.91466481E+02</pdfrwt>
<totfact> 0.88249730E+04</totfact>
</mgrwt>
</event>
<event>
 7    1  0.3565607E-009  0.9130226E+02  0.7818608E-02  0.1299728E+00
         -1   -1    0    0    0  501 -0.00000000000E+00  0.00000000000E+00  0.72468532781E+02  0.72468532957E+02  0.50400000000E-02 0.  1.
          1   -1    0    0  501    0  0.00000000000E+00 -0.00000000000E+00 -0.28757661047E+02  0.28757661488E+02  0.50400000000E-02 0. -1.
         23    2    1    2    0    0  0.00000000000E+00  0.35527136788E-14  0.43710871735E+02  0.10122619444E+03  0.91302257004E+02 0.  0.
    9000005    2    3    3    0    0 -0.11561801949E+02  0.27674692895E+02  0.59380551720E+02  0.67386827401E+02  0.10741075060E+02 0.  0.
         22    1    3    3    0    0  0.11561801949E+02 -0.27674692895E+02 -0.15669679985E+02  0.33839367044E+02  0.00000000000E+00 0. -1.
         22    1    4    4    0    0 -0.37404225984E+01  0.19592347766E+01  0.14210431961E+02  0.14824497922E+02  0.00000000000E+00 0.  1.
         22    1    4    4    0    0 -0.78213793502E+01  0.25715458119E+02  0.45170119759E+02  0.52562329478E+02  0.00000000000E+00 0.  1.
<mgrwt>
<rscale>  0 0.91302257E+02</rscale>
<asrwt>0</asrwt>
<pdfrwt beam="2">  1        1 0.44242556E-02 0.91302257E+02</pdfrwt>
<pdfrwt beam="1">  1       -1 0.11149005E-01 0.91302257E+02</pdfrwt>
<totfact> 0.85751316E+04</totfact>
</mgrwt>
</event>
<event>
 7    1  0.3565607E-009  0.1000433E+03  0.7818608E-02  0.1280205E+00
         -1   -1    0    0    0  501 -0.00000000000E+00  0.00000000000E+00  0.75815241986E+01  0.75815258738E+01  0.50400000000E-02 0.  1.
          1   -1    0    0  501    0  0.00000000000E+00 -0.00000000000E+00 -0.33003436483E+03  0.33003436487E+03  0.50400000000E-02 0. -1.
         23    2    1    2    0    0  0.00000000000E+00  0.00000000000E+00 -0.32245284064E+03  0.33761589075E+03  0.10004326689E+03 0.  0.
    9000005    2    3    3    0    0 -0.11948856727E+02 -0.47470162213E+02 -0.18206064046E+03  0.18893448187E+03  0.12408471070E+02 0.  0.
         22    1    3    3    0    0  0.11948856727E+02  0.47470162213E+02 -0.14039220017E+03  0.14868140888E+03  0.00000000000E+00 0. -1.
         22    1    4    4    0    0 -0.10205958246E+02 -0.41801640562E+02 -0.14016421142E+03  0.14662041093E+03  0.00000000000E+00 0.  1.
         22    1    4    4    0    0 -0.17428984808E+01 -0.56685216507E+01 -0.41896429041E+02  0.42314070936E+02  0.00000000000E+00 0.  1.
<mgrwt>
<rscale>  0 0.10004327E+03</rscale>
<asrwt>0</asrwt>
<pdfrwt beam="2">  1        1 0.50774507E-01 0.10004327E+03</pdfrwt>
<pdfrwt beam="1">  1       -1 0.11663887E-02 0.10004327E+03</pdfrwt>
<totfact> 0.10176184E+05</totfact>
</mgrwt>
</event>
<event>
 7    1  0.3565607E-009  0.9101841E+02  0.7818608E-02  0.1300404E+00
         -1   -1    0    0    0  501 -0.00000000000E+00  0.00000000000E+00  0.64515135865E+02  0.64515136062E+02  0.50400000000E-02 0.  1.
          1   -1    0    0  501    0  0.00000000000E+00 -0.00000000000E+00 -0.32102353902E+02  0.32102354298E+02  0.50400000000E-02 0. -1.
         23    2    1    2    0    0  0.00000000000E+00  0.00000000000E+00  0.32412781963E+02  0.96617490360E+02  0.91018410274E+02 0.  0.
    9000005    2    3    3    0    0 -0.32068269025E+02  0.31204154939E+02  0.21843619061E+02  0.50641623123E+02  0.92388925301E+01 0.  0.
         22    1    3    3    0    0  0.32068269025E+02 -0.31204154939E+02  0.10569162902E+02  0.45975867237E+02  0.00000000000E+00 0. -1.
         22    1    4    4    0    0 -0.27295637146E+02  0.21168551061E+02  0.15684989473E+02  0.37936502949E+02  0.00000000000E+00 0. -1.
         22    1    4    4    0    0 -0.47726318789E+01  0.10035603877E+02  0.61586295879E+01  0.12705120174E+02  0.00000000000E+00 0. -1.
<mgrwt>
<rscale>  0 0.91018410E+02</rscale>
<asrwt>0</asrwt>
<pdfrwt beam="2">  1        1 0.49388238E-02 0.91018410E+02</pdfrwt>
<pdfrwt beam="1">  1       -1 0.99254055E-02 0.91018410E+02</pdfrwt>
<totfact> 0.88065102E+04</totfact>
</mgrwt>
</event>
<event>
 7    1  0.3565607E-009  0.9258990E+02  0.7818608E-02  0.1296698E+00
         -1   -1    0    0    0  501 -0.00000000000E+00  0.00000000000E+00  0.15366863411E+03  0.15366863419E+03  0.50400000000E-02 0.  1.
          1   -1    0    0  501    0  0.00000000000E+00 -0.00000000000E+00 -0.13947037057E+02  0.13947037967E+02  0.50400000000E-02 0. -1.
         23    2    1    2    0    0  0.00000000000E+00  0.71054273576E-14  0.13972159705E+03  0.16761567216E+03  0.92589896158E+02 0.  0.
    9000005    2    3    3    0    0 -0.15382481450E+02 -0.42745043229E+02  0.69502082814E+02  0.83982307788E+02  0.12598771755E+02 0.  0.
         22    1    3    3    0    0  0.15382481450E+02  0.42745043229E+02  0.70219514239E+02  0.83633364372E+02  0.00000000000E+00 0. -1.
         22    1    4    4    0    0 -0.45740769414E+01 -0.29514242527E+02  0.47782015991E+02  0.56348325121E+02  0.00000000000E+00 0. -1.
         22    1    4    4    0    0 -0.10808404508E+02 -0.13230800702E+02  0.21720066823E+02  0.27633982666E+02  0.00000000000E+00 0. -1.
<mgrwt>
<rscale>  0 0.92589896E+02</rscale>
<asrwt>0</asrwt>
<pdfrwt beam="2">  1        1 0.21456982E-02 0.92589896E+02</pdfrwt>
<pdfrwt beam="1">  1       -1 0.23641327E-01 0.92589896E+02</pdfrwt>
<totfact> 0.71448687E+04</totfact>
</mgrwt>
</event>
<event>
 7    1  0.3565607E-009  0.8845303E+02  0.7818608E-02  0.1306642E+00
          1   -1    0    0  501    0  0.00000000000E+00  0.00000000000E+00  0.39627532217E+03  0.39627532220E+03  0.50400000000E-02 0. -1.
         -1   -1    0    0    0  501 -0.00000000000E+00 -0.00000000000E+00 -0.49359224284E+01  0.49359250016E+01  0.50400000000E-02 0.  1.
         23    2    1    2    0    0  0.00000000000E+00 -0.17763568394E-14  0.39133939974E+03  0.40121124720E+03  0.88453033258E+02 0.  0.
    9000005    2    3    3    0    0 -0.41493590219E+02  0.13306974358E+02  0.17367224932E+03  0.17922525222E+03  0.78004649828E+01 0.  0.
         22    1    3    3    0    0  0.41493590219E+02 -0.13306974358E+02  0.21766715041E+03  0.22198599498E+03  0.00000000000E+00 0. -1.
         22    1    4    4    0    0 -0.33603934487E+01  0.31011436629E+01  0.24197671161E+02  0.24625934008E+02  0.00000000000E+00 0. -1.
         22    1    4    4    0    0 -0.38133196770E+02  0.10205830695E+02  0.14947457816E+03  0.15459931822E+03  0.00000000000E+00 0. -1.
<mgrwt>
<rscale>  0 0.88453033E+02</rscale>
<asrwt>0</asrwt>
<pdfrwt beam="1">  1        1 0.60965458E-01 0.88453033E+02</pdfrwt>
<pdfrwt beam="2">  1       -1 0.75937259E-03 0.88453033E+02</pdfrwt>
<totfact> 0.14595784E+05</totfact>
</mgrwt>
</event>
<event>
 7    1  0.3565607E-009  0.9191392E+02  0.7818608E-02  0.1298282E+00
          1   -1    0    0  501    0  0.00000000000E+00  0.00000000000E+00  0.19345743606E+02  0.19345744263E+02  0.50400000000E-02 0. -1.
         -1   -1    0    0    0  501 -0.00000000000E+00 -0.00000000000E+00 -0.10917348961E+03  0.10917348973E+03  0.50400000000E-02 0.  1.
         23    2    1    2    0    0  0.00000000000E+00  0.00000000000E+00 -0.89827746007E+02  0.12851923399E+03  0.91913924697E+02 0.  0.
    9000005    2    3    3    0    0 -0.46512791736E+01 -0.18462893701E+02  0.10390216349E+02  0.26508681496E+02  0.15239447401E+02 0.  0.
         22    1    3    3    0    0  0.46512791736E+01  0.18462893701E+02 -0.10021796236E+03  0.10201055250E+03  0.00000000000E+00 0.  1.
         22    1    4    4    0    0 -0.58186843185E+00 -0.10093946165E+01  0.83959877937E+01  0.84764414346E+01  0.00000000000E+00 0.  1.
         22    1    4    4    0    0 -0.40694107418E+01 -0.17453499085E+02  0.19942285555E+01  0.18032240061E+02  0.00000000000E+00 0.  1.
<mgrwt>
<rscale>  0 0.91913925E+02</rscale>
<asrwt>0</asrwt>
<pdfrwt beam="1">  1        1 0.29762684E-02 0.91913925E+02</pdfrwt>
<pdfrwt beam="2">  1       -1 0.16795921E-01 0.91913925E+02</pdfrwt>
<totfact> 0.78377471E+04</totfact>
</mgrwt>
</event>
<event>
 7    1  0.3565607E-009  0.9098956E+02  0.7818608E-02  0.1300473E+00
         -1   -1    0    0    0  501 -0.00000000000E+00  0.00000000000E+00  0.13690693933E+01  0.13690786702E+01  0.50400000000E-02 0.  1.
          1   -1    0    0  501    0  0.00000000000E+00 -0.00000000000E+00 -0.15118064359E+04  0.15118064359E+04  0.50400000000E-02 0. -1.
         23    2    1    2    0    0  0.00000000000E+00  0.00000000000E+00 -0.15104373665E+04  0.15131755146E+04  0.90989558634E+02 0.  0.
    9000005    2    3    3    0    0 -0.11373341661E+02 -0.24339349568E+02 -0.13637214862E+04  0.13640202050E+04  0.96473270369E+01 0.  0.
         22    1    3    3    0    0  0.11373341661E+02  0.24339349568E+02 -0.14671588033E+03  0.14915530959E+03  0.00000000000E+00 0.  1.
         22    1    4    4    0    0 -0.68519734220E+01 -0.22736691988E+02 -0.11293309935E+04  0.11295806299E+04  0.00000000000E+00 0. -1.
         22    1    4    4    0    0 -0.45213682389E+01 -0.16026575801E+01 -0.23439049267E+03  0.23443957502E+03  0.00000000000E+00 0. -1.
<mgrwt>
<rscale>  0 0.90989559E+02</rscale>
<asrwt>0</asrwt>
<pdfrwt beam="2">  1        1 0.23258427E+00 0.90989559E+02</pdfrwt>
<pdfrwt beam="1">  1       -1 0.21062798E-03 0.90989559E+02</pdfrwt>
<totfact> 0.11039629E+05</totfact>
</mgrwt>
</event>
<event>
 7    1  0.3565607E-009  0.1062275E+03  0.7818608E-02  0.1267720E+00
          1   -1    0    0  501    0  0.00000000000E+00  0.00000000000E+00  0.99032715742E+02  0.99032715870E+02  0.50400000000E-02 0. -1.
         -1   -1    0    0    0  501 -0.00000000000E+00 -0.00000000000E+00 -0.28486237059E+02  0.28486237505E+02  0.50400000000E-02 0.  1.
         23    2    1    2    0    0  0.00000000000E+00  0.00000000000E+00  0.70546478683E+02  0.12751895338E+03  0.10622748145E+03 0.  0.
    9000005    2    3    3    0    0 -0.38752587958E+02 -0.12384231385E+02 -0.28960584591E+01  0.43560996502E+02  0.15298398650E+02 0.  0.
         22    1    3    3    0    0  0.38752587958E+02  0.12384231385E+02  0.73442537142E+02  0.83957956873E+02  0.00000000000E+00 0. -1.
         22    1    4    4    0    0 -0.26307529164E+02 -0.52384704870E+01 -0.85246346704E+01  0.28145995453E+02  0.00000000000E+00 0. -1.
         22    1    4    4    0    0 -0.12445058794E+02 -0.71457608979E+01  0.56285762113E+01  0.15415001050E+02  0.00000000000E+00 0. -1.
<mgrwt>
<rscale>  0 0.10622748E+03</rscale>
<asrwt>0</asrwt>
<pdfrwt beam="1">  1        1 0.15235802E-01 0.10622748E+03</pdfrwt>
<pdfrwt beam="2">  1       -1 0.43824981E-02 0.10622748E+03</pdfrwt>
<totfact> 0.68447749E+04</totfact>
</mgrwt>
</event>
<event>
 7    1  0.3565607E-009  0.9063549E+02  0.7818608E-02  0.1301320E+00
          1   -1    0    0  501    0  0.00000000000E+00  0.00000000000E+00  0.14691817884E+03  0.14691817893E+03  0.50400000000E-02 0. -1.
         -1   -1    0    0    0  501 -0.00000000000E+00 -0.00000000000E+00 -0.13978515745E+02  0.13978516653E+02  0.50400000000E-02 0.  1.
         23    2    1    2    0    0 -0.35527136788E-14 -0.17763568394E-14  0.13293966310E+03  0.16089669558E+03  0.90635493185E+02 0.  0.
    9000005    2    3    3    0    0 -0.29903549684E+02 -0.15526865161E+02  0.11955886057E+03  0.12464270682E+03  0.10304241598E+02 0.  0.
         22    1    3    3    0    0  0.29903549684E+02  0.15526865161E+02  0.13380802524E+02  0.36253988768E+02  0.00000000000E+00 0.  1.
         22    1    4    4    0    0  0.34529567374E-02  0.92206067496E+00  0.16185469663E+01  0.18627673213E+01  0.00000000000E+00 0. -1.
         22    1    4    4    0    0 -0.29907002640E+02 -0.16448925836E+02  0.11794031361E+03  0.12277993949E+03  0.00000000000E+00 0. -1.
<mgrwt>
<rscale>  0 0.90635493E+02</rscale>
<asrwt>0</asrwt>
<pdfrwt beam="1">  1        1 0.22602797E-01 0.90635493E+02</pdfrwt>
<pdfrwt beam="2">  1       -1 0.21505409E-02 0.90635493E+02</pdfrwt>
<totfact> 0.11351506E+05</totfact>
</mgrwt>
</event>
<event>
 7    1  0.3565607E-009  0.9145926E+02  0.7818608E-02  0.1299356E+00
         -1   -1    0    0    0  501 -0.00000000000E+00  0.00000000000E+00  0.69398623627E+02  0.69398623810E+02  0.50400000000E-02 0.  1.
          1   -1    0    0  501    0  0.00000000000E+00 -0.00000000000E+00 -0.30133145986E+02  0.30133146408E+02  0.50400000000E-02 0. -1.
         23    2    1    2    0    0  0.00000000000E+00  0.35527136788E-14  0.39265477640E+02  0.99531770218E+02  0.91459256220E+02 0.  0.
    9000005    2    3    3    0    0 -0.10206303400E+02 -0.17849571707E+02  0.63994445368E+02  0.67371271402E+02  0.45632590437E+01 0.  0.
         22    1    3    3    0    0  0.10206303400E+02  0.17849571707E+02 -0.24728967728E+02  0.32160498816E+02  0.00000000000E+00 0. -1.
         22    1    4    4    0    0 -0.56800246644E+01 -0.55300696557E+01  0.23116217676E+02  0.24437755016E+02  0.00000000000E+00 0. -1.
         22    1    4    4    0    0 -0.45262787355E+01 -0.12319502051E+02  0.40878227692E+02  0.42933516385E+02  0.00000000000E+00 0. -1.
<mgrwt>
<rscale>  0 0.91459256E+02</rscale>
<asrwt>0</asrwt>
<pdfrwt beam="2">  1        1 0.46358687E-02 0.91459256E+02</pdfrwt>
<pdfrwt beam="1">  1       -1 0.10676711E-01 0.91459256E+02</pdfrwt>
<totfact> 0.85978877E+04</totfact>
</mgrwt>
</event>
<event>
 7    1  0.3565607E-009  0.1003664E+03  0.7818608E-02  0.1279527E+00
          1   -1    0    0  501    0  0.00000000000E+00  0.00000000000E+00  0.18413445349E+02  0.18413446039E+02  0.50400000000E-02 0. -1.
         -1   -1    0    0    0  501 -0.00000000000E+00 -0.00000000000E+00 -0.13676701122E+03  0.13676701131E+03  0.50400000000E-02 0.  1.
         23    2    1    2    0    0 -0.35527136788E-14  0.35527136788E-14 -0.11835356587E+03  0.15518045735E+03  0.10036636782E+03 0.  0.
    9000005    2    3    3    0    0  0.31635470069E+02 -0.26600707926E+02 -0.10233807350E+03  0.11085330287E+03  0.10342767568E+02 0.  0.
         22    1    3    3    0    0 -0.31635470069E+02  0.26600707926E+02 -0.16015492372E+02  0.44327154483E+02  0.00000000000E+00 0. -1.
         22    1    4    4    0    0  0.29176167444E+02 -0.22340132339E+02 -0.96249434807E+02  0.10302564710E+03  0.00000000000E+00 0.  1.
         22    1    4    4    0    0  0.24593026250E+01 -0.42605755863E+01 -0.60886386921E+01  0.78276557698E+01  0.00000000000E+00 0.  1.
<mgrwt>
<rscale>  0 0.10036637E+03</rscale>
<asrwt>0</asrwt>
<pdfrwt beam="1">  1        1 0.28328379E-02 0.10036637E+03</pdfrwt>
<pdfrwt beam="2">  1       -1 0.21041078E-01 0.10036637E+03</pdfrwt>
<totfact> 0.59510795E+04</totfact>
</mgrwt>
</event>
<event>
 7    1  0.3565607E-009  0.7643395E+02  0.7818608E-02  0.1339487E+00
          1   -1    0    0  501    0  0.00000000000E+00  0.00000000000E+00  0.35089910106E+03  0.35089910110E+03  0.50400000000E-02 0. -1.
         -1   -1    0    0    0  501 -0.00000000000E+00 -0.00000000000E+00 -0.41622694147E+01  0.41622724661E+01  0.50400000000E-02 0.  1.
         23    2    1    2    0    0  0.00000000000E+00  0.35527136788E-14  0.34673683165E+03  0.35506137357E+03  0.76433949110E+02 0.  0.
    9000005    2    3    3    0    0  0.17837599013E+02  0.30269294784E+02  0.23790878959E+03  0.24070249597E+03  0.10133570923E+02 0.  0.
         22    1    3    3    0    0 -0.17837599013E+02 -0.30269294784E+02  0.10882804206E+03  0.11435887759E+03  0.00000000000E+00 0.  1.
         22    1    4    4    0    0 -0.94024318969E-01  0.76224414931E+01  0.55353312865E+02  0.55875752345E+02  0.00000000000E+00 0.  1.
         22    1    4    4    0    0  0.17931623332E+02  0.22646853291E+02  0.18255547672E+03  0.18482674363E+03  0.00000000000E+00 0.  1.
<mgrwt>
<rscale>  0 0.76433949E+02</rscale>
<asrwt>0</asrwt>
<pdfrwt beam="1">  1        1 0.53984476E-01 0.76433949E+02</pdfrwt>
<pdfrwt beam="2">  1       -1 0.64034939E-03 0.76433949E+02</pdfrwt>
<totfact> 0.20991653E+05</totfact>
</mgrwt>
</event>
<event>
 7    1  0.3565607E-009  0.9300869E+02  0.7818608E-02  0.1295725E+00
         -1   -1    0    0    0  501 -0.00000000000E+00  0.00000000000E+00  0.12045124555E+03  0.12045124566E+03  0.50400000000E-02 0.  1.
          1   -1    0    0  501    0  0.00000000000E+00 -0.00000000000E+00 -0.17954601028E+02  0.17954601736E+02  0.50400000000E-02 0. -1.
         23    2    1    2    0    0  0.22204460493E-15  0.00000000000E+00  0.10249664452E+03  0.13840584739E+03  0.93008690207E+02 0.  0.
    9000005    2    3    3    0    0  0.12914494178E+01  0.38914623338E+02  0.87562937886E+02  0.96704152643E+02  0.12977260727E+02 0.  0.
         22    1    3    3    0    0 -0.12914494178E+01 -0.38914623338E+02  0.14933706637E+02  0.41701694750E+02  0.00000000000E+00 0. -1.
         22    1    4    4    0    0  0.70556898589E+01  0.19378835758E+02  0.41667868718E+02  0.46492293105E+02  0.00000000000E+00 0.  1.
         22    1    4    4    0    0 -0.57642404411E+01  0.19535787579E+02  0.45895069169E+02  0.50211859537E+02  0.00000000000E+00 0.  1.
<mgrwt>
<rscale>  0 0.93008690E+02</rscale>
<asrwt>0</asrwt>
<pdfrwt beam="2">  1        1 0.27622464E-02 0.93008690E+02</pdfrwt>
<pdfrwt beam="1">  1       -1 0.18530960E-01 0.93008690E+02</pdfrwt>
<totfact> 0.74531706E+04</totfact>
</mgrwt>
</event>
<event>
 7    1  0.3565607E-009  0.9344737E+02  0.7818608E-02  0.1294712E+00
         -1   -1    0    0    0  501 -0.00000000000E+00  0.00000000000E+00  0.36623892171E+01  0.36623926850E+01  0.50400000000E-02 0.  1.
          1   -1    0    0  501    0  0.00000000000E+00 -0.00000000000E+00 -0.59608676424E+03  0.59608676426E+03  0.50400000000E-02 0. -1.
         23    2    1    2    0    0  0.35527136788E-14  0.00000000000E+00 -0.59242437502E+03  0.59974915694E+03  0.93447370945E+02 0.  0.
    9000005    2    3    3    0    0  0.22965003431E+02  0.54991579630E+01 -0.55430019290E+03  0.55490403030E+03  0.10589942382E+02 0.  0.
         22    1    3    3    0    0 -0.22965003431E+02 -0.54991579630E+01 -0.38124182123E+02  0.44845126640E+02  0.00000000000E+00 0.  1.
         22    1    4    4    0    0  0.82287978127E+01 -0.10010055593E+01 -0.28653389508E+03  0.28665377750E+03  0.00000000000E+00 0. -1.
         22    1    4    4    0    0  0.14736205618E+02  0.65001635223E+01 -0.26776629782E+03  0.26825025280E+03  0.00000000000E+00 0. -1.
<mgrwt>
<rscale>  0 0.93447371E+02</rscale>
<asrwt>0</asrwt>
<pdfrwt beam="2">  1        1 0.91705579E-01 0.93447371E+02</pdfrwt>
<pdfrwt beam="1">  1       -1 0.56344524E-03 0.93447371E+02</pdfrwt>
<totfact> 0.13259729E+05</totfact>
</mgrwt>
</event>
<event>
 7    1  0.3565607E-009  0.9258483E+02  0.7818608E-02  0.1296710E+00
          1   -1    0    0  501    0  0.00000000000E+00  0.00000000000E+00  0.18339566032E+02  0.18339566725E+02  0.50400000000E-02 0. -1.
         -1   -1    0    0    0  501 -0.00000000000E+00 -0.00000000000E+00 -0.11685051134E+03  0.11685051145E+03  0.50400000000E-02 0.  1.
         23    2    1    2    0    0  0.00000000000E+00  0.00000000000E+00 -0.98510945310E+02  0.13519007818E+03  0.92584830783E+02 0.  0.
    9000005    2    3    3    0    0  0.29398247913E+02 -0.22280603073E+02 -0.88223788477E+02  0.96895067412E+02  0.15637614331E+02 0.  0.
         22    1    3    3    0    0 -0.29398247913E+02  0.22280603073E+02 -0.10287156833E+02  0.38295010763E+02  0.00000000000E+00 0. -1.
         22    1    4    4    0    0  0.29020029591E+02 -0.19760890651E+02 -0.87446284927E+02  0.94231139569E+02  0.00000000000E+00 0. -1.
         22    1    4    4    0    0  0.37821832193E+00 -0.25197124215E+01 -0.77750354941E+00  0.26639278435E+01  0.00000000000E+00 0. -1.
<mgrwt>
<rscale>  0 0.92584831E+02</rscale>
<asrwt>0</asrwt>
<pdfrwt beam="1">  1        1 0.28214718E-02 0.92584831E+02</pdfrwt>
<pdfrwt beam="2">  1       -1 0.17977001E-01 0.92584831E+02</pdfrwt>
<totfact> 0.75886891E+04</totfact>
</mgrwt>
</event>
<event>
 7    1  0.3565607E-009  0.9045440E+02  0.7818608E-02  0.1301755E+00
         -1   -1    0    0    0  501 -0.00000000000E+00  0.00000000000E+00  0.18619699407E+02  0.18619700089E+02  0.50400000000E-02 0.  1.
          1   -1    0    0  501    0  0.00000000000E+00 -0.00000000000E+00 -0.10985673513E+03  0.10985673524E+03  0.50400000000E-02 0. -1.
         23    2    1    2    0    0  0.17763568394E-14  0.71054273576E-14 -0.91237035720E+02  0.12847643533E+03  0.90454395960E+02 0.  0.
    9000005    2    3    3    0    0  0.14595798702E+02  0.41707470522E+02 -0.36835611777E+02  0.58390307145E+02  0.10000761793E+02 0.  0.
         22    1    3    3    0    0 -0.14595798702E+02 -0.41707470522E+02 -0.54401423944E+02  0.70086128187E+02  0.00000000000E+00 0. -1.
         22    1    4    4    0    0  0.18935752786E+01  0.71185394379E+01 -0.18845766391E+01  0.76033453277E+01  0.00000000000E+00 0. -1.
         22    1    4    4    0    0  0.12702223424E+02  0.34588931084E+02 -0.34951035138E+02  0.50786961817E+02  0.00000000000E+00 0. -1.
<mgrwt>
<rscale>  0 0.90454396E+02</rscale>
<asrwt>0</asrwt>
<pdfrwt beam="2">  1        1 0.16901036E-01 0.90454396E+02</pdfrwt>
<pdfrwt beam="1">  1       -1 0.28645693E-02 0.90454396E+02</pdfrwt>
<totfact> 0.10843356E+05</totfact>
</mgrwt>
</event>
<event>
 7    1  0.3565607E-009  0.9803417E+02  0.7818608E-02  0.1284485E+00
          1   -1    0    0  501    0  0.00000000000E+00  0.00000000000E+00  0.30309349693E+03  0.30309349697E+03  0.50400000000E-02 0. -1.
         -1   -1    0    0    0  501 -0.00000000000E+00 -0.00000000000E+00 -0.79271720085E+01  0.79271736107E+01  0.50400000000E-02 0.  1.
         23    2    1    2    0    0  0.00000000000E+00  0.00000000000E+00  0.29516632492E+03  0.31102067058E+03  0.98034168340E+02 0.  0.
    9000005    2    3    3    0    0  0.48037723094E+02  0.40478195098E+00  0.11944782545E+03  0.12885377527E+03  0.52655208742E+01 0.  0.
         22    1    3    3    0    0 -0.48037723094E+02 -0.40478195098E+00  0.17571849948E+03  0.18216689531E+03  0.00000000000E+00 0. -1.
         22    1    4    4    0    0  0.44841346876E+02 -0.95596204310E+00  0.11113159849E+03  0.11984111330E+03  0.00000000000E+00 0.  1.
         22    1    4    4    0    0  0.31963762186E+01  0.13607439941E+01  0.83162269539E+01  0.90126619762E+01  0.00000000000E+00 0.  1.
<mgrwt>
<rscale>  0 0.98034168E+02</rscale>
<asrwt>0</asrwt>
<pdfrwt beam="1">  1        1 0.46629771E-01 0.98034168E+02</pdfrwt>
<pdfrwt beam="2">  1       -1 0.12195650E-02 0.98034168E+02</pdfrwt>
<totfact> 0.10573390E+05</totfact>
</mgrwt>
</event>
<event>
 7    1  0.3565607E-009  0.8891289E+02  0.7818608E-02  0.1305506E+00
          1   -1    0    0  501    0  0.00000000000E+00  0.00000000000E+00  0.31778610980E+03  0.31778610984E+03  0.50400000000E-02 0. -1.
         -1   -1    0    0    0  501 -0.00000000000E+00 -0.00000000000E+00 -0.62191988914E+01  0.62192009335E+01  0.50400000000E-02 0.  1.
         23    2    1    2    0    0  0.00000000000E+00  0.00000000000E+00  0.31156691091E+03  0.32400531077E+03  0.88912886784E+02 0.  0.
    9000005    2    3    3    0    0  0.89412693601E+01  0.14915056143E+02  0.30481322514E+03  0.30535008445E+03  0.50166382239E+01 0.  0.
         22    1    3    3    0    0 -0.89412693601E+01 -0.14915056143E+02  0.67536857685E+01  0.18655226318E+02  0.00000000000E+00 0.  1.
         22    1    4    4    0    0  0.53610311236E+01  0.10427708402E+02  0.23881836263E+03  0.23910601851E+03  0.00000000000E+00 0. -1.
         22    1    4    4    0    0  0.35802382365E+01  0.44873477411E+01  0.65994862505E+02  0.66244065943E+02  0.00000000000E+00 0. -1.
<mgrwt>
<rscale>  0 0.88912887E+02</rscale>
<asrwt>0</asrwt>
<pdfrwt beam="1">  1        1 0.48890163E-01 0.88912887E+02</pdfrwt>
<pdfrwt beam="2">  1       -1 0.95680013E-03 0.88912887E+02</pdfrwt>
<totfact> 0.13847462E+05</totfact>
</mgrwt>
</event>
<event>
 7    1  0.3565607E-009  0.9056364E+02  0.7818608E-02  0.1301492E+00
         -1   -1    0    0    0  501 -0.00000000000E+00  0.00000000000E+00  0.24454724270E+02  0.24454724789E+02  0.50400000000E-02 0.  1.
          1   -1    0    0  501    0  0.00000000000E+00 -0.00000000000E+00 -0.83846499372E+02  0.83846499523E+02  0.50400000000E-02 0. -1.
         23    2    1    2    0    0  0.00000000000E+00 -0.44408920985E-15 -0.59391775102E+02  0.10830122431E+03  0.90563636399E+02 0.  0.
    9000005    2    3    3    0    0 -0.40676115790E+02 -0.35224148803E+01 -0.75148063251E+01  0.42284759004E+02  0.80358401939E+01 0.  0.
         22    1    3    3    0    0  0.40676115790E+02  0.35224148803E+01 -0.51876968777E+02  0.66016465308E+02  0.00000000000E+00 0. -1.
         22    1    4    4    0    0 -0.27749632715E+02 -0.56931627073E+01 -0.69365220742E+01  0.29164525641E+02  0.00000000000E+00 0.  1.
         22    1    4    4    0    0 -0.12926483075E+02  0.21707478270E+01 -0.57828425082E+00  0.13120233363E+02  0.00000000000E+00 0.  1.
<mgrwt>
<rscale>  0 0.90563636E+02</rscale>
<asrwt>0</asrwt>
<pdfrwt beam="2">  1        1 0.12899461E-01 0.90563636E+02</pdfrwt>
<pdfrwt beam="1">  1       -1 0.37622654E-02 0.90563636E+02</pdfrwt>
<totfact> 0.10339002E+05</totfact>
</mgrwt>
</event>
<event>
 7    1  0.3565607E-009  0.9187893E+02  0.7818608E-02  0.1298364E+00
          1   -1    0    0  501    0  0.00000000000E+00  0.00000000000E+00  0.96315930967E+02  0.96315931099E+02  0.50400000000E-02 0. -1.
         -1   -1    0    0    0  501 -0.00000000000E+00 -0.00000000000E+00 -0.21911581041E+02  0.21911581620E+02  0.50400000000E-02 0.  1.
         23    2    1    2    0    0  0.00000000000E+00  0.00000000000E+00  0.74404349927E+02  0.11822751272E+03  0.91878928356E+02 0.  0.
    9000005    2    3    3    0    0  0.41236908175E+02  0.85820486055E+01  0.19664834069E+02  0.49158353535E+02  0.15990743236E+02 0.  0.
         22    1    3    3    0    0 -0.41236908175E+02 -0.85820486055E+01  0.54739515857E+02  0.69069159184E+02  0.00000000000E+00 0. -1.
         22    1    4    4    0    0  0.27200362787E+02  0.85917012227E+01  0.20452693385E+02  0.35099711286E+02  0.00000000000E+00 0.  1.
         22    1    4    4    0    0  0.14036545388E+02 -0.96526171717E-02 -0.78785931577E+00  0.14058642250E+02  0.00000000000E+00 0.  1.
<mgrwt>
<rscale>  0 0.91878928E+02</rscale>
<asrwt>0</asrwt>
<pdfrwt beam="1">  1        1 0.14817835E-01 0.91878928E+02</pdfrwt>
<pdfrwt beam="2">  1       -1 0.33710127E-02 0.91878928E+02</pdfrwt>
<totfact> 0.10165129E+05</totfact>
</mgrwt>
</event>
<event>
 7    1  0.3701184E-009  0.9970263E+02  0.7818608E-02  0.1280923E+00
          1   -1    0    0  501    0  0.00000000000E+00  0.00000000000E+00  0.64401502161E+02  0.64401502358E+02  0.50400000000E-02 0. -1.
         -1   -1    0    0    0  501 -0.00000000000E+00 -0.00000000000E+00 -0.38588437928E+02  0.38588438258E+02  0.50400000000E-02 0.  1.
         23    2    1    2    0    0  0.00000000000E+00  0.00000000000E+00  0.25813064232E+02  0.10298994062E+03  0.99702625757E+02 0.  0.
    9000005    2    3    3    0    0 -0.17400892431E+02  0.34095613092E+01 -0.33769108322E+02  0.40825228342E+02  0.14557830421E+02 0.  0.
         22    1    3    3    0    0  0.17400892431E+02 -0.34095613092E+01  0.59582172555E+02  0.62164712274E+02  0.00000000000E+00 0. -1.
         22    1    4    4    0    0 -0.18282578598E+02  0.17388526727E+01 -0.34261336719E+02  0.38873068860E+02  0.00000000000E+00 0. -1.
         22    1    4    4    0    0  0.88168616789E+00  0.16707086365E+01  0.49222839689E+00  0.19521594815E+01  0.00000000000E+00 0. -1.
<mgrwt>
<rscale>  0 0.99702626E+02</rscale>
<asrwt>0</asrwt>
<pdfrwt beam="1">  1        1 0.99079234E-02 0.99702626E+02</pdfrwt>
<pdfrwt beam="2">  1       -1 0.59366828E-02 0.99702626E+02</pdfrwt>
<totfact> 0.75933602E+04</totfact>
</mgrwt>
</event>
<event>
 7    1  0.3565607E-009  0.9114815E+02  0.7818608E-02  0.1300095E+00
         -1   -1    0    0    0  501 -0.00000000000E+00  0.00000000000E+00  0.53655779384E+01  0.53655803055E+01  0.50400000000E-02 0.  1.
          1   -1    0    0  501    0  0.00000000000E+00 -0.00000000000E+00 -0.38709639100E+03  0.38709639104E+03  0.50400000000E-02 0. -1.
         23    2    1    2    0    0  0.00000000000E+00  0.00000000000E+00 -0.38173081307E+03  0.39246197134E+03  0.91148150317E+02 0.  0.
    9000005    2    3    3    0    0 -0.28572076646E+02  0.44341425865E+01 -0.34081119051E+03  0.34235767318E+03  0.14848690991E+02 0.  0.
         22    1    3    3    0    0  0.28572076646E+02 -0.44341425865E+01 -0.40919622560E+02  0.50104298167E+02  0.00000000000E+00 0.  1.
         22    1    4    4    0    0 -0.12658906573E+02 -0.33471862452E+01 -0.20147133418E+03  0.20189638448E+03  0.00000000000E+00 0. -1.
         22    1    4    4    0    0 -0.15913170073E+02  0.77813288317E+01 -0.13933985633E+03  0.14046128869E+03  0.00000000000E+00 0. -1.
<mgrwt>
<rscale>  0 0.91148150E+02</rscale>
<asrwt>0</asrwt>
<pdfrwt beam="2">  1        1 0.59553269E-01 0.91148150E+02</pdfrwt>
<pdfrwt beam="1">  1       -1 0.82547402E-03 0.91148150E+02</pdfrwt>
<totfact> 0.13427092E+05</totfact>
</mgrwt>
</event>
<event>
 7    1  0.3565607E-009  0.9148044E+02  0.7818608E-02  0.1299306E+00
          1   -1    0    0  501    0  0.00000000000E+00  0.00000000000E+00  0.21372097999E+04  0.21372097999E+04  0.50400000000E-02 0. -1.
         -1   -1    0    0    0  501 -0.00000000000E+00 -0.00000000000E+00 -0.97891825912E+00  0.97893123336E+00  0.50400000000E-02 0.  1.
         23    2    1    2    0    0  0.22204460493E-15 -0.35527136788E-14  0.21362308816E+04  0.21381887311E+04  0.91480436679E+02 0.  0.
    9000005    2    3    3    0    0  0.14467207963E+01 -0.17202327213E+02  0.20566596154E+04  0.20567663788E+04  0.11880654089E+02 0.  0.
         22    1    3    3    0    0 -0.14467207963E+01  0.17202327213E+02  0.79571266198E+02  0.81422352379E+02  0.00000000000E+00 0.  1.
         22    1    4    4    0    0  0.60846957416E+01 -0.14149448473E+02  0.15220231037E+04  0.15221010343E+04  0.00000000000E+00 0.  1.
         22    1    4    4    0    0 -0.46379749453E+01 -0.30528787397E+01  0.53463651172E+03  0.53466534444E+03  0.00000000000E+00 0.  1.
<mgrwt>
<rscale>  0 0.91480437E+02</rscale>
<asrwt>0</asrwt>
<pdfrwt beam="1">  1        1 0.32880186E+00 0.91480437E+02</pdfrwt>
<pdfrwt beam="2">  1       -1 0.15060365E-03 0.91480437E+02</pdfrwt>
<totfact> 0.71032876E+04</totfact>
</mgrwt>
</event>
<event>
 7    1  0.3565607E-009  0.9153011E+02  0.7818608E-02  0.1299188E+00
         -1   -1    0    0    0  501 -0.00000000000E+00  0.00000000000E+00  0.26894482833E+01  0.26894530058E+01  0.50400000000E-02 0.  1.
          1   -1    0    0  501    0  0.00000000000E+00 -0.00000000000E+00 -0.77876138738E+03  0.77876138739E+03  0.50400000000E-02 0. -1.
         23    2    1    2    0    0  0.22204460493E-15  0.00000000000E+00 -0.77607193909E+03  0.78145084040E+03  0.91530111504E+02 0.  0.
    9000005    2    3    3    0    0 -0.10356909516E+01 -0.41540495264E+02 -0.53462373229E+03  0.53645304047E+03  0.15252675067E+02 0.  0.
         22    1    3    3    0    0  0.10356909516E+01  0.41540495264E+02 -0.24144820680E+03  0.24499779993E+03  0.00000000000E+00 0. -1.
         22    1    4    4    0    0 -0.57779611912E+01 -0.36927358976E+02 -0.43059595393E+03  0.43221509717E+03  0.00000000000E+00 0. -1.
         22    1    4    4    0    0  0.47422702396E+01 -0.46131362883E+01 -0.10402777836E+03  0.10423794330E+03  0.00000000000E+00 0. -1.
<mgrwt>
<rscale>  0 0.91530112E+02</rscale>
<asrwt>0</asrwt>
<pdfrwt beam="2">  1        1 0.11980927E+00 0.91530112E+02</pdfrwt>
<pdfrwt beam="1">  1       -1 0.41376226E-03 0.91530112E+02</pdfrwt>
<totfact> 0.14015722E+05</totfact>
</mgrwt>
</event>
<event>
 7    1  0.3565607E-009  0.9043910E+02  0.7818608E-02  0.1301792E+00
         -1   -1    0    0    0  501 -0.00000000000E+00  0.00000000000E+00  0.23285245209E+02  0.23285245754E+02  0.50400000000E-02 0.  1.
          1   -1    0    0  501    0  0.00000000000E+00 -0.00000000000E+00 -0.87815592494E+02  0.87815592638E+02  0.50400000000E-02 0. -1.
         23    2    1    2    0    0  0.00000000000E+00 -0.22204460493E-15 -0.64530347285E+02  0.11110083839E+03  0.90439098684E+02 0.  0.
    9000005    2    3    3    0    0  0.11646780434E+02 -0.19298560606E+01 -0.85719173506E+02  0.86845154614E+02  0.74116350705E+01 0.  0.
         22    1    3    3    0    0 -0.11646780434E+02  0.19298560606E+01  0.21188826222E+02  0.24255683778E+02  0.00000000000E+00 0.  1.
         22    1    4    4    0    0  0.68472910867E+01 -0.46311761109E+01 -0.57780142257E+02  0.58368467743E+02  0.00000000000E+00 0.  1.
         22    1    4    4    0    0  0.47994893475E+01  0.27013200503E+01 -0.27939031250E+02  0.28476686871E+02  0.00000000000E+00 0.  1.
<mgrwt>
<rscale>  0 0.90439099E+02</rscale>
<asrwt>0</asrwt>
<pdfrwt beam="2">  1        1 0.13510091E-01 0.90439099E+02</pdfrwt>
<pdfrwt beam="1">  1       -1 0.35823455E-02 0.90439099E+02</pdfrwt>
<totfact> 0.10454948E+05</totfact>
</mgrwt>
</event>
<event>
 7    1  0.3565607E-009  0.9426516E+02  0.7818608E-02  0.1292840E+00
         -1   -1    0    0    0  501 -0.00000000000E+00  0.00000000000E+00  0.29865617656E+03  0.29865617660E+03  0.50400000000E-02 0.  1.
          1   -1    0    0  501    0  0.00000000000E+00 -0.00000000000E+00 -0.74382510561E+01  0.74382527636E+01  0.50400000000E-02 0. -1.
         23    2    1    2    0    0 -0.17763568394E-14  0.00000000000E+00  0.29121792551E+03  0.30609442937E+03  0.94265155568E+02 0.  0.
    9000005    2    3    3    0    0 -0.13068958708E+02  0.30669983845E+02  0.25332133426E+03  0.25562070136E+03  0.76680495034E+01 0.  0.
         22    1    3    3    0    0  0.13068958708E+02 -0.30669983845E+02  0.37896591250E+02  0.50473728009E+02  0.00000000000E+00 0. -1.
         22    1    4    4    0    0 -0.12779497017E+02  0.27118658546E+02  0.23851658053E+03  0.24039321200E+03  0.00000000000E+00 0. -1.
         22    1    4    4    0    0 -0.28946169123E+00  0.35513252993E+01  0.14804753725E+02  0.15227489363E+02  0.00000000000E+00 0. -1.
<mgrwt>
<rscale>  0 0.94265156E+02</rscale>
<asrwt>0</asrwt>
<pdfrwt beam="2">  1        1 0.11443464E-02 0.94265156E+02</pdfrwt>
<pdfrwt beam="1">  1       -1 0.45947108E-01 0.94265156E+02</pdfrwt>
<totfact> 0.55621532E+04</totfact>
</mgrwt>
</event>
<event>
 7    1  0.3565607E-009  0.9131451E+02  0.7818608E-02  0.1299699E+00
          1   -1    0    0  501    0  0.00000000000E+00  0.00000000000E+00  0.27623869406E+02  0.27623869865E+02  0.50400000000E-02 0.  1.
         -1   -1    0    0    0  501 -0.00000000000E+00 -0.00000000000E+00 -0.75463171205E+02  0.75463171374E+02  0.50400000000E-02 0. -1.
         23    2    1    2    0    0  0.71054273576E-14  0.00000000000E+00 -0.47839301800E+02  0.10308704124E+03  0.91314507472E+02 0.  0.
    9000005    2    3    3    0    0 -0.38692269733E+02  0.14882177656E+02 -0.43862274592E+02  0.61441060709E+02  0.11512335116E+02 0.  0.
         22    1    3    3    0    0  0.38692269733E+02 -0.14882177656E+02 -0.39770272076E+01  0.41645980530E+02  0.00000000000E+00 0.  1.
         22    1    4    4    0    0 -0.39263548685E+02  0.15464117640E+02 -0.43201024099E+02  0.60391172144E+02  0.00000000000E+00 0.  1.
         22    1    4    4    0    0  0.57127895165E+00 -0.58193998394E+00 -0.66125049310E+00  0.10498885656E+01  0.00000000000E+00 0.  1.
<mgrwt>
<rscale>  0 0.91314507E+02</rscale>
<asrwt>0</asrwt>
<pdfrwt beam="1">  1        1 0.42498261E-02 0.91314507E+02</pdfrwt>
<pdfrwt beam="2">  1       -1 0.11609719E-01 0.91314507E+02</pdfrwt>
<totfact> 0.85152430E+04</totfact>
</mgrwt>
</event>
<event>
 7    1  0.3565607E-009  0.9248323E+02  0.7818608E-02  0.1296947E+00
         -1   -1    0    0    0  501 -0.00000000000E+00  0.00000000000E+00  0.55295660809E+01  0.55295683778E+01  0.50400000000E-02 0.  1.
          1   -1    0    0  501    0  0.00000000000E+00 -0.00000000000E+00 -0.38670060323E+03  0.38670060327E+03  0.50400000000E-02 0. -1.
         23    2    1    2    0    0  0.17763568394E-14  0.00000000000E+00 -0.38117103715E+03  0.39223017164E+03  0.92483230826E+02 0.  0.
    9000005    2    3    3    0    0  0.73763082600E+01  0.42929323857E+02 -0.14782603969E+03  0.15485446815E+03  0.15166790171E+02 0.  0.
         22    1    3    3    0    0 -0.73763082600E+01 -0.42929323857E+02 -0.23334499746E+03  0.23737570350E+03  0.00000000000E+00 0. -1.
         22    1    4    4    0    0  0.90217963936E+00  0.11770448544E+01 -0.23469196353E+02  0.23516006041E+02  0.00000000000E+00 0. -1.
         22    1    4    4    0    0  0.64741286206E+01  0.41752279002E+02 -0.12435684334E+03  0.13133846210E+03  0.00000000000E+00 0. -1.
<mgrwt>
<rscale>  0 0.92483231E+02</rscale>
<asrwt>0</asrwt>
<pdfrwt beam="2">  1        1 0.59492379E-01 0.92483231E+02</pdfrwt>
<pdfrwt beam="1">  1       -1 0.85070296E-03 0.92483231E+02</pdfrwt>
<totfact> 0.12915536E+05</totfact>
</mgrwt>
</event>
<event>
 7    1  0.3565607E-009  0.8987035E+02  0.7818608E-02  0.1303166E+00
         -1   -1    0    0    0  501 -0.00000000000E+00  0.00000000000E+00  0.33243879989E+02  0.33243880371E+02  0.50400000000E-02 0.  1.
          1   -1    0    0  501    0  0.00000000000E+00 -0.00000000000E+00 -0.60738096151E+02  0.60738096360E+02  0.50400000000E-02 0. -1.
         23    2    1    2    0    0  0.00000000000E+00  0.88817841970E-15 -0.27494216162E+02  0.93981976730E+02  0.89870351217E+02 0.  0.
    9000005    2    3    3    0    0 -0.91220444423E+01 -0.71006538175E+01 -0.58162928501E+02  0.61206972597E+02  0.15157053250E+02 0.  0.
         22    1    3    3    0    0  0.91220444423E+01  0.71006538175E+01  0.30668712339E+02  0.32775004134E+02  0.00000000000E+00 0.  1.
         22    1    4    4    0    0 -0.34902666439E+01 -0.94862993153E+01 -0.49974394134E+02  0.50986389409E+02  0.00000000000E+00 0.  1.
         22    1    4    4    0    0 -0.56317777984E+01  0.23856454978E+01 -0.81885343668E+01  0.10220583187E+02  0.00000000000E+00 0.  1.
<mgrwt>
<rscale>  0 0.89870351E+02</rscale>
<asrwt>0</asrwt>
<pdfrwt beam="2">  1        1 0.93443225E-02 0.89870351E+02</pdfrwt>
<pdfrwt beam="1">  1       -1 0.51144431E-02 0.89870351E+02</pdfrwt>
<totfact> 0.10048415E+05</totfact>
</mgrwt>
</event>
<event>
 7    1  0.3565607E-009  0.9227773E+02  0.7818608E-02  0.1297428E+00
         -1   -1    0    0    0  501 -0.00000000000E+00  0.00000000000E+00  0.17906189555E+03  0.17906189562E+03  0.50400000000E-02 0.  1.
          1   -1    0    0  501    0  0.00000000000E+00 -0.00000000000E+00 -0.11888596604E+02  0.11888597672E+02  0.50400000000E-02 0. -1.
         23    2    1    2    0    0  0.00000000000E+00 -0.35527136788E-14  0.16717329894E+03  0.19095049329E+03  0.92277727584E+02 0.  0.
    9000005    2    3    3    0    0 -0.36876706666E+02  0.23924276056E+02  0.65951998410E+02  0.80596453214E+02  0.14623942598E+02 0.  0.
         22    1    3    3    0    0  0.36876706666E+02 -0.23924276056E+02  0.10122130053E+03  0.11035404008E+03  0.00000000000E+00 0.  1.
         22    1    4    4    0    0 -0.35761741004E+02  0.17847507209E+02  0.54506080409E+02  0.67589558622E+02  0.00000000000E+00 0. -1.
         22    1    4    4    0    0 -0.11149656627E+01  0.60767688461E+01  0.11445918002E+02  0.13006894592E+02  0.00000000000E+00 0. -1.
<mgrwt>
<rscale>  0 0.92277728E+02</rscale>
<asrwt>0</asrwt>
<pdfrwt beam="2">  1        1 0.18290152E-02 0.92277728E+02</pdfrwt>
<pdfrwt beam="1">  1       -1 0.27547981E-01 0.92277728E+02</pdfrwt>
<totfact> 0.69365394E+04</totfact>
</mgrwt>
</event>
<event>
 7    1  0.3565607E-009  0.9077870E+02  0.7818608E-02  0.1300977E+00
         -1   -1    0    0    0  501 -0.00000000000E+00  0.00000000000E+00  0.38518694973E+01  0.38518727946E+01  0.50400000000E-02 0.  1.
          1   -1    0    0  501    0  0.00000000000E+00 -0.00000000000E+00 -0.53485517999E+03  0.53485518002E+03  0.50400000000E-02 0. -1.
         23    2    1    2    0    0 -0.88817841970E-15  0.00000000000E+00 -0.53100331050E+03  0.53870705281E+03  0.90778703402E+02 0.  0.
    9000005    2    3    3    0    0 -0.32064166907E+01 -0.39748008925E+02 -0.39138452386E+03  0.39350515578E+03  0.86183978950E+01 0.  0.
         22    1    3    3    0    0  0.32064166907E+01  0.39748008925E+02 -0.13961878663E+03  0.14520189703E+03  0.00000000000E+00 0.  1.
         22    1    4    4    0    0 -0.45092724449E+01 -0.37802742322E+02 -0.37848406241E+03  0.38039396205E+03  0.00000000000E+00 0. -1.
         22    1    4    4    0    0  0.13028557543E+01 -0.19452666038E+01 -0.12900461450E+02  0.13111193725E+02  0.00000000000E+00 0. -1.
<mgrwt>
<rscale>  0 0.90778703E+02</rscale>
<asrwt>0</asrwt>
<pdfrwt beam="2">  1        1 0.82285354E-01 0.90778703E+02</pdfrwt>
<pdfrwt beam="1">  1       -1 0.59259599E-03 0.90778703E+02</pdfrwt>
<totfact> 0.14192414E+05</totfact>
</mgrwt>
</event>
<event>
 7    1  0.3565607E-009  0.8965867E+02  0.7818608E-02  0.1303680E+00
         -1   -1    0    0    0  501 -0.00000000000E+00  0.00000000000E+00  0.64690889854E+01  0.64690909487E+01  0.50400000000E-02 0.  1.
          1   -1    0    0  501    0  0.00000000000E+00 -0.00000000000E+00 -0.31065719192E+03  0.31065719196E+03  0.50400000000E-02 0. -1.
         23    2    1    2    0    0  0.00000000000E+00  0.00000000000E+00 -0.30418810293E+03  0.31712628291E+03  0.89658671332E+02 0.  0.
    9000005    2    3    3    0    0 -0.29883648260E+02  0.31805245245E+02 -0.17311961166E+03  0.17898304035E+03  0.12646056110E+02 0.  0.
         22    1    3    3    0    0  0.29883648260E+02 -0.31805245245E+02 -0.13106849127E+03  0.13814324255E+03  0.00000000000E+00 0. -1.
         22    1    4    4    0    0 -0.38440233142E+01  0.29713088711E+01 -0.40477304074E+02  0.40767846850E+02  0.00000000000E+00 0. -1.
         22    1    4    4    0    0 -0.26039624945E+02  0.28833936374E+02 -0.13264230758E+03  0.13821519350E+03  0.00000000000E+00 0. -1.
<mgrwt>
<rscale>  0 0.89658671E+02</rscale>
<asrwt>0</asrwt>
<pdfrwt beam="2">  1        1 0.47793403E-01 0.89658671E+02</pdfrwt>
<pdfrwt beam="1">  1       -1 0.99524486E-03 0.89658671E+02</pdfrwt>
<totfact> 0.13486304E+05</totfact>
</mgrwt>
</event>
<event>
 7    1  0.3565607E-009  0.9188404E+02  0.7818608E-02  0.1298352E+00
          1   -1    0    0  501    0  0.00000000000E+00  0.00000000000E+00  0.19047414009E+02  0.19047414676E+02  0.50400000000E-02 0. -1.
         -1   -1    0    0    0  501 -0.00000000000E+00 -0.00000000000E+00 -0.11081133107E+03  0.11081133119E+03  0.50400000000E-02 0.  1.
         23    2    1    2    0    0  0.00000000000E+00  0.00000000000E+00 -0.91763917065E+02  0.12985874586E+03  0.91884043241E+02 0.  0.
    9000005    2    3    3    0    0 -0.42731390574E+02  0.23402327700E+01 -0.24931503974E+02  0.50498681164E+02  0.98533486233E+01 0.  0.
         22    1    3    3    0    0  0.42731390574E+02 -0.23402327700E+01 -0.66832413091E+02  0.79360064701E+02  0.00000000000E+00 0.  1.
         22    1    4    4    0    0 -0.69831789010E+00 -0.14860373405E+01 -0.43702756146E+00  0.16991020989E+01  0.00000000000E+00 0.  1.
         22    1    4    4    0    0 -0.42033072683E+02  0.38262701105E+01 -0.24494476413E+02  0.48799579065E+02  0.00000000000E+00 0.  1.
<mgrwt>
<rscale>  0 0.91884043E+02</rscale>
<asrwt>0</asrwt>
<pdfrwt beam="1">  1        1 0.29303715E-02 0.91884043E+02</pdfrwt>
<pdfrwt beam="2">  1       -1 0.17047897E-01 0.91884043E+02</pdfrwt>
<totfact> 0.78215406E+04</totfact>
</mgrwt>
</event>
<event>
 7    1  0.3565607E-009  0.9571290E+02  0.7818608E-02  0.1289578E+00
         -1   -1    0    0    0  501 -0.00000000000E+00  0.00000000000E+00  0.12791863782E+03  0.12791863792E+03  0.50400000000E-02 0.  1.
          1   -1    0    0  501    0  0.00000000000E+00 -0.00000000000E+00 -0.17903878460E+02  0.17903879169E+02  0.50400000000E-02 0. -1.
         23    2    1    2    0    0 -0.17763568394E-14 -0.35527136788E-14  0.11001475936E+03  0.14582251709E+03  0.95712899929E+02 0.  0.
    9000005    2    3    3    0    0 -0.10346890427E+02 -0.24447249475E+02  0.11518542189E+03  0.11877696479E+03  0.11643015063E+02 0.  0.
         22    1    3    3    0    0  0.10346890427E+02  0.24447249475E+02 -0.51706625269E+01  0.27045552303E+02  0.00000000000E+00 0. -1.
         22    1    4    4    0    0  0.21030764231E+01 -0.24879094024E+01  0.75815320185E+01  0.82518029171E+01  0.00000000000E+00 0.  1.
         22    1    4    4    0    0 -0.12449966850E+02 -0.21959340073E+02  0.10760388987E+03  0.11052516187E+03  0.00000000000E+00 0.  1.
<mgrwt>
<rscale>  0 0.95712900E+02</rscale>
<asrwt>0</asrwt>
<pdfrwt beam="2">  1        1 0.27544429E-02 0.95712900E+02</pdfrwt>
<pdfrwt beam="1">  1       -1 0.19679790E-01 0.95712900E+02</pdfrwt>
<totfact> 0.68324325E+04</totfact>
</mgrwt>
</event>
<event>
 7    1  0.3565607E-009  0.9141801E+02  0.7818608E-02  0.1299454E+00
         -1   -1    0    0    0  501 -0.00000000000E+00  0.00000000000E+00  0.14198245737E+03  0.14198245746E+03  0.50400000000E-02 0.  1.
          1   -1    0    0  501    0  0.00000000000E+00 -0.00000000000E+00 -0.14715290304E+02  0.14715291167E+02  0.50400000000E-02 0. -1.
         23    2    1    2    0    0  0.88817841970E-15  0.35527136788E-14  0.12726716706E+03  0.15669774862E+03  0.91418010323E+02 0.  0.
    9000005    2    3    3    0    0 -0.71947627325E+01 -0.28637387973E+02  0.55112498911E+01  0.31412601989E+02  0.91931000030E+01 0.  0.
         22    1    3    3    0    0  0.71947627325E+01  0.28637387973E+02  0.12175591717E+03  0.12528514663E+03  0.00000000000E+00 0.  1.
         22    1    4    4    0    0 -0.48552319877E+01 -0.26862566628E+02  0.28440539156E+01  0.27445571704E+02  0.00000000000E+00 0.  1.
         22    1    4    4    0    0 -0.23395307447E+01 -0.17748213459E+01  0.26671959755E+01  0.39670302856E+01  0.00000000000E+00 0.  1.
<mgrwt>
<rscale>  0 0.91418010E+02</rscale>
<asrwt>0</asrwt>
<pdfrwt beam="2">  1        1 0.22638908E-02 0.91418010E+02</pdfrwt>
<pdfrwt beam="1">  1       -1 0.21843456E-01 0.91418010E+02</pdfrwt>
<totfact> 0.75222285E+04</totfact>
</mgrwt>
</event>
<event>
 7    1  0.3565607E-009  0.9272056E+02  0.7818608E-02  0.1296394E+00
         -1   -1    0    0    0  501 -0.00000000000E+00  0.00000000000E+00  0.75398738080E+02  0.75398738249E+02  0.50400000000E-02 0.  1.
          1   -1    0    0  501    0  0.00000000000E+00 -0.00000000000E+00 -0.28505455343E+02  0.28505455788E+02  0.50400000000E-02 0. -1.
         23    2    1    2    0    0  0.17763568394E-14  0.00000000000E+00  0.46893282738E+02  0.10390419404E+03  0.92720556365E+02 0.  0.
    9000005    2    3    3    0    0 -0.15040263295E+02  0.18079179181E+02 -0.21132117760E+02  0.31928355364E+02  0.44482845388E+01 0.  0.
         22    1    3    3    0    0  0.15040263295E+02 -0.18079179181E+02  0.68025400498E+02  0.71975838674E+02  0.00000000000E+00 0.  1.
         22    1    4    4    0    0 -0.61326145847E+01  0.81653627914E+01 -0.12075903501E+02  0.15814852403E+02  0.00000000000E+00 0. -1.
         22    1    4    4    0    0 -0.89076487099E+01  0.99138163900E+01 -0.90562142598E+01  0.16113502961E+02  0.00000000000E+00 0. -1.
<mgrwt>
<rscale>  0 0.92720556E+02</rscale>
<asrwt>0</asrwt>
<pdfrwt beam="2">  1        1 0.43854547E-02 0.92720556E+02</pdfrwt>
<pdfrwt beam="1">  1       -1 0.11599806E-01 0.92720556E+02</pdfrwt>
<totfact> 0.81899244E+04</totfact>
</mgrwt>
</event>
<event>
 7    1  0.3565607E-009  0.9452296E+02  0.7818608E-02  0.1292254E+00
          1   -1    0    0  501    0  0.00000000000E+00  0.00000000000E+00  0.89921645758E+02  0.89921645899E+02  0.50400000000E-02 0. -1.
         -1   -1    0    0    0  501 -0.00000000000E+00 -0.00000000000E+00 -0.24839930864E+02  0.24839931375E+02  0.50400000000E-02 0.  1.
         23    2    1    2    0    0  0.27755575616E-16  0.00000000000E+00  0.65081714894E+02  0.11476157727E+03  0.94522960199E+02 0.  0.
    9000005    2    3    3    0    0  0.18546882860E+00  0.19936822018E+02  0.84477785411E+02  0.86945775607E+02  0.50557291251E+01 0.  0.
         22    1    3    3    0    0 -0.18546882860E+00 -0.19936822018E+02 -0.19396070518E+02  0.27815801667E+02  0.00000000000E+00 0.  1.
         22    1    4    4    0    0 -0.44464651302E-01  0.20725320030E+00  0.18931278340E-01  0.21281303425E+00  0.00000000000E+00 0.  1.
         22    1    4    4    0    0  0.22993347990E+00  0.19729568818E+02  0.84458854133E+02  0.86732962573E+02  0.00000000000E+00 0.  1.
<mgrwt>
<rscale>  0 0.94522960E+02</rscale>
<asrwt>0</asrwt>
<pdfrwt beam="1">  1        1 0.13834099E-01 0.94522960E+02</pdfrwt>
<pdfrwt beam="2">  1       -1 0.38215279E-02 0.94522960E+02</pdfrwt>
<totfact> 0.92981529E+04</totfact>
</mgrwt>
</event>
<event>
 7    1  0.3565607E-009  0.9149423E+02  0.7818608E-02  0.1299273E+00
         -1   -1    0    0    0  501 -0.00000000000E+00  0.00000000000E+00  0.38108230179E+02  0.38108230513E+02  0.50400000000E-02 0.  1.
          1   -1    0    0  501    0  0.00000000000E+00 -0.00000000000E+00 -0.54917235658E+02  0.54917235890E+02  0.50400000000E-02 0. -1.
         23    2    1    2    0    0  0.00000000000E+00  0.00000000000E+00 -0.16809005479E+02  0.93025466402E+02  0.91494233338E+02 0.  0.
    9000005    2    3    3    0    0 -0.42279470276E+02 -0.12082927346E+02 -0.22424074323E+01  0.46703371041E+02  0.15576448100E+02 0.  0.
         22    1    3    3    0    0  0.42279470276E+02  0.12082927346E+02 -0.14566598047E+02  0.46322095362E+02  0.00000000000E+00 0. -1.
         22    1    4    4    0    0 -0.29283733032E+02 -0.60792563422E+01  0.55284079942E+01  0.30414760774E+02  0.00000000000E+00 0. -1.
         22    1    4    4    0    0 -0.12995737244E+02 -0.60036710037E+01 -0.77708154266E+01  0.16288610267E+02  0.00000000000E+00 0. -1.
<mgrwt>
<rscale>  0 0.91494233E+02</rscale>
<asrwt>0</asrwt>
<pdfrwt beam="2">  1        1 0.84488056E-02 0.91494233E+02</pdfrwt>
<pdfrwt beam="1">  1       -1 0.58628047E-02 0.91494233E+02</pdfrwt>
<totfact> 0.94177043E+04</totfact>
</mgrwt>
</event>
<event>
 7    1  0.3565607E-009  0.9027920E+02  0.7818608E-02  0.1302177E+00
          1   -1    0    0  501    0  0.00000000000E+00  0.00000000000E+00  0.13427693162E+02  0.13427694108E+02  0.50400000000E-02 0. -1.
         -1   -1    0    0    0  501 -0.00000000000E+00 -0.00000000000E+00 -0.15174487361E+03  0.15174487369E+03  0.50400000000E-02 0.  1.
         23    2    1    2    0    0 -0.88817841970E-15  0.00000000000E+00 -0.13831718045E+03  0.16517256780E+03  0.90279204400E+02 0.  0.
    9000005    2    3    3    0    0  0.78139926692E+01  0.36435158942E+02 -0.25414532603E+02  0.46279392308E+02  0.10358783537E+02 0.  0.
         22    1    3    3    0    0 -0.78139926692E+01 -0.36435158942E+02 -0.11290264784E+03  0.11889317549E+03  0.00000000000E+00 0.  1.
         22    1    4    4    0    0  0.60904548545E+00  0.43315535892E+01 -0.78400053819E+01  0.89776933166E+01  0.00000000000E+00 0.  1.
         22    1    4    4    0    0  0.72049471838E+01  0.32103605353E+02 -0.17574527221E+02  0.37301698991E+02  0.00000000000E+00 0.  1.
<mgrwt>
<rscale>  0 0.90279204E+02</rscale>
<asrwt>0</asrwt>
<pdfrwt beam="1">  1        1 0.20657991E-02 0.90279204E+02</pdfrwt>
<pdfrwt beam="2">  1       -1 0.23345364E-01 0.90279204E+02</pdfrwt>
<totfact> 0.76524229E+04</totfact>
</mgrwt>
</event>
<event>
 7    1  0.3565607E-009  0.8984491E+02  0.7818608E-02  0.1303228E+00
          1   -1    0    0  501    0  0.00000000000E+00  0.00000000000E+00  0.74545748327E+02  0.74545748497E+02  0.50400000000E-02 0. -1.
         -1   -1    0    0    0  501 -0.00000000000E+00 -0.00000000000E+00 -0.27070987854E+02  0.27070988323E+02  0.50400000000E-02 0.  1.
         23    2    1    2    0    0  0.00000000000E+00  0.00000000000E+00  0.47474760472E+02  0.10161673682E+03  0.89844912600E+02 0.  0.
    9000005    2    3    3    0    0  0.19879933548E+02 -0.29358691820E+02  0.54301192698E+02  0.65509331483E+02  0.92578852740E+01 0.  0.
         22    1    3    3    0    0 -0.19879933548E+02  0.29358691820E+02 -0.68264322254E+01  0.36107405337E+02  0.00000000000E+00 0.  1.
         22    1    4    4    0    0  0.14607790936E+02 -0.15918907334E+02  0.26573473141E+02  0.34248337792E+02  0.00000000000E+00 0.  1.
         22    1    4    4    0    0  0.52721426120E+01 -0.13439784486E+02  0.27727719557E+02  0.31260993691E+02  0.00000000000E+00 0.  1.
<mgrwt>
<rscale>  0 0.89844913E+02</rscale>
<asrwt>0</asrwt>
<pdfrwt beam="1">  1        1 0.11468577E-01 0.89844913E+02</pdfrwt>
<pdfrwt beam="2">  1       -1 0.41647675E-02 0.89844913E+02</pdfrwt>
<totfact> 0.10374433E+05</totfact>
</mgrwt>
</event>
<event>
 7    1  0.3565607E-009  0.9160488E+02  0.7818608E-02  0.1299011E+00
         -1   -1    0    0    0  501 -0.00000000000E+00  0.00000000000E+00  0.11069372324E+03  0.11069372336E+03  0.50400000000E-02 0.  1.
          1   -1    0    0  501    0  0.00000000000E+00 -0.00000000000E+00 -0.18951961991E+02  0.18951962661E+02  0.50400000000E-02 0. -1.
         23    2    1    2    0    0 -0.17763568394E-14  0.00000000000E+00  0.91741761251E+02  0.12964568602E+03  0.91604875118E+02 0.  0.
    9000005    2    3    3    0    0 -0.72918381529E+01 -0.40849574210E+02  0.21521848154E+02  0.48081632586E+02  0.11260320927E+02 0.  0.
         22    1    3    3    0    0  0.72918381529E+01  0.40849574210E+02  0.70219913097E+02  0.81564053431E+02  0.00000000000E+00 0.  1.
         22    1    4    4    0    0 -0.84616772330E+01 -0.40209941012E+02  0.22067122806E+02  0.46641154003E+02  0.00000000000E+00 0.  1.
         22    1    4    4    0    0  0.11698390802E+01 -0.63963319761E+00 -0.54527465209E+00  0.14404785827E+01  0.00000000000E+00 0.  1.
<mgrwt>
<rscale>  0 0.91604875E+02</rscale>
<asrwt>0</asrwt>
<pdfrwt beam="2">  1        1 0.29156865E-02 0.91604875E+02</pdfrwt>
<pdfrwt beam="1">  1       -1 0.17029804E-01 0.91604875E+02</pdfrwt>
<totfact> 0.78849305E+04</totfact>
</mgrwt>
</event>
<event>
 7    1  0.3565607E-009  0.8945905E+02  0.7818608E-02  0.1304167E+00
          1   -1    0    0  501    0  0.00000000000E+00  0.00000000000E+00  0.16121020940E+02  0.16121021728E+02  0.50400000000E-02 0. -1.
         -1   -1    0    0    0  501 -0.00000000000E+00 -0.00000000000E+00 -0.12410691929E+03  0.12410691939E+03  0.50400000000E-02 0.  1.
         23    2    1    2    0    0 -0.17763568394E-14  0.00000000000E+00 -0.10798589835E+03  0.14022794112E+03  0.89459047773E+02 0.  0.
    9000005    2    3    3    0    0  0.12685622728E+02  0.38778030108E+02 -0.28816840851E+02  0.51163917473E+02  0.11075896870E+02 0.  0.
         22    1    3    3    0    0 -0.12685622728E+02 -0.38778030108E+02 -0.79169057500E+02  0.89064023649E+02  0.00000000000E+00 0.  1.
         22    1    4    4    0    0  0.30692541147E+01  0.12224755931E+02 -0.15392874312E+02  0.19894862603E+02  0.00000000000E+00 0.  1.
         22    1    4    4    0    0  0.96163686132E+01  0.26553274177E+02 -0.13423966538E+02  0.31269054870E+02  0.00000000000E+00 0.  1.
<mgrwt>
<rscale>  0 0.89459048E+02</rscale>
<asrwt>0</asrwt>
<pdfrwt beam="1">  1        1 0.24801572E-02 0.89459048E+02</pdfrwt>
<pdfrwt beam="2">  1       -1 0.19093372E-01 0.89459048E+02</pdfrwt>
<totfact> 0.81914724E+04</totfact>
</mgrwt>
</event>
<event>
 7    1  0.3565607E-009  0.9268486E+02  0.7818608E-02  0.1296477E+00
         -1   -1    0    0    0  501 -0.00000000000E+00  0.00000000000E+00  0.12995042434E+02  0.12995043411E+02  0.50400000000E-02 0.  1.
          1   -1    0    0  501    0  0.00000000000E+00 -0.00000000000E+00 -0.16526461573E+03  0.16526461580E+03  0.50400000000E-02 0. -1.
         23    2    1    2    0    0  0.00000000000E+00 -0.35527136788E-14 -0.15226957329E+03  0.17825965921E+03  0.92684859348E+02 0.  0.
    9000005    2    3    3    0    0  0.28558630124E+02 -0.31558820390E+02 -0.11010045087E+03  0.11834480809E+03  0.84752475850E+01 0.  0.
         22    1    3    3    0    0 -0.28558630124E+02  0.31558820390E+02 -0.42169122420E+02  0.59914851119E+02  0.00000000000E+00 0. -1.
         22    1    4    4    0    0  0.17158796161E+02 -0.17765613301E+02 -0.74722877464E+02  0.78699108751E+02  0.00000000000E+00 0.  1.
         22    1    4    4    0    0  0.11399833963E+02 -0.13793207089E+02 -0.35377573407E+02  0.39645699343E+02  0.00000000000E+00 0.  1.
<mgrwt>
<rscale>  0 0.92684859E+02</rscale>
<asrwt>0</asrwt>
<pdfrwt beam="2">  1        1 0.25425324E-01 0.92684859E+02</pdfrwt>
<pdfrwt beam="1">  1       -1 0.19992375E-02 0.92684859E+02</pdfrwt>
<totfact> 0.10922812E+05</totfact>
</mgrwt>
</event>
<event>
 7    1  0.3565607E-009  0.9074315E+02  0.7818608E-02  0.1301062E+00
          1   -1    0    0  501    0  0.00000000000E+00  0.00000000000E+00  0.15887835733E+03  0.15887835741E+03  0.50400000000E-02 0. -1.
         -1   -1    0    0    0  501 -0.00000000000E+00 -0.00000000000E+00 -0.12956955852E+02  0.12956956832E+02  0.50400000000E-02 0.  1.
         23    2    1    2    0    0 -0.22204460493E-15  0.00000000000E+00  0.14592140148E+03  0.17183531424E+03  0.90743152971E+02 0.  0.
    9000005    2    3    3    0    0  0.11032730574E+01 -0.44195464633E+02  0.85010763918E+02  0.96572029211E+02  0.12036217779E+02 0.  0.
         22    1    3    3    0    0 -0.11032730574E+01  0.44195464633E+02  0.60910637561E+02  0.75263285031E+02  0.00000000000E+00 0.  1.
         22    1    4    4    0    0  0.84517550130E+00 -0.25368037768E+01  0.13917330435E+02  0.14171865843E+02  0.00000000000E+00 0. -1.
         22    1    4    4    0    0  0.25809755610E+00 -0.41658660856E+02  0.71093433483E+02  0.82400163368E+02  0.00000000000E+00 0. -1.
<mgrwt>
<rscale>  0 0.90743153E+02</rscale>
<asrwt>0</asrwt>
<pdfrwt beam="1">  1        1 0.24442825E-01 0.90743153E+02</pdfrwt>
<pdfrwt beam="2">  1       -1 0.19933778E-02 0.90743153E+02</pdfrwt>
<totfact> 0.11479601E+05</totfact>
</mgrwt>
</event>
<event>
 7    1  0.3565607E-009  0.9228544E+02  0.7818608E-02  0.1297410E+00
          1   -1    0    0  501    0  0.00000000000E+00  0.00000000000E+00  0.24096054027E+02  0.24096054554E+02  0.50400000000E-02 0.  1.
         -1   -1    0    0    0  501 -0.00000000000E+00 -0.00000000000E+00 -0.88360971233E+02  0.88360971376E+02  0.50400000000E-02 0. -1.
         23    2    1    2    0    0  0.17763568394E-14 -0.71054273576E-14 -0.64264917206E+02  0.11245702593E+03  0.92285443585E+02 0.  0.
    9000005    2    3    3    0    0  0.11880518162E+02 -0.42097491712E+02 -0.17393578233E+02  0.48345654573E+02  0.11019084908E+02 0.  0.
         22    1    3    3    0    0 -0.11880518162E+02  0.42097491712E+02 -0.46871338973E+02  0.64111371357E+02  0.00000000000E+00 0. -1.
         22    1    4    4    0    0  0.84010993348E+01 -0.38689884523E+02 -0.12691274721E+02  0.41575883497E+02  0.00000000000E+00 0.  1.
         22    1    4    4    0    0  0.34794188269E+01 -0.34076071880E+01 -0.47023035112E+01  0.67697710768E+01  0.00000000000E+00 0.  1.
<mgrwt>
<rscale>  0 0.92285444E+02</rscale>
<asrwt>0</asrwt>
<pdfrwt beam="1">  1        1 0.37070853E-02 0.92285444E+02</pdfrwt>
<pdfrwt beam="2">  1       -1 0.13593995E-01 0.92285444E+02</pdfrwt>
<totfact> 0.80666981E+04</totfact>
</mgrwt>
</event>
<event>
 7    1  0.3565607E-009  0.9103677E+02  0.7818608E-02  0.1300360E+00
          1   -1    0    0  501    0  0.00000000000E+00  0.00000000000E+00  0.24525225371E+02  0.24525225889E+02  0.50400000000E-02 0. -1.
         -1   -1    0    0    0  501 -0.00000000000E+00 -0.00000000000E+00 -0.84481310184E+02  0.84481310334E+02  0.50400000000E-02 0.  1.
         23    2    1    2    0    0 -0.17763568394E-14  0.00000000000E+00 -0.59956084813E+02  0.10900653622E+03  0.91036766381E+02 0.  0.
    9000005    2    3    3    0    0  0.15160815291E+02  0.29425452785E+02  0.58121789340E+01  0.35377926918E+02  0.11050280408E+02 0.  0.
         22    1    3    3    0    0 -0.15160815291E+02 -0.29425452785E+02 -0.65768263747E+02  0.73628609305E+02  0.00000000000E+00 0.  1.
         22    1    4    4    0    0  0.19285189841E+01  0.13752665466E+02  0.52867403891E+01  0.14859495847E+02  0.00000000000E+00 0.  1.
         22    1    4    4    0    0  0.13232296307E+02  0.15672787320E+02  0.52543854493E+00  0.20518431071E+02  0.00000000000E+00 0.  1.
<mgrwt>
<rscale>  0 0.91036766E+02</rscale>
<asrwt>0</asrwt>
<pdfrwt beam="1">  1        1 0.37731117E-02 0.91036766E+02</pdfrwt>
<pdfrwt beam="2">  1       -1 0.12997125E-01 0.91036766E+02</pdfrwt>
<totfact> 0.84197644E+04</totfact>
</mgrwt>
</event>
<event>
 7    1  0.3565607E-009  0.9121786E+02  0.7818608E-02  0.1299929E+00
         -1   -1    0    0    0  501 -0.00000000000E+00  0.00000000000E+00  0.13128110940E+03  0.13128110950E+03  0.50400000000E-02 0.  1.
          1   -1    0    0  501    0  0.00000000000E+00 -0.00000000000E+00 -0.15845192070E+02  0.15845192872E+02  0.50400000000E-02 0. -1.
         23    2    1    2    0    0  0.00000000000E+00  0.35527136788E-14  0.11543591733E+03  0.14712630237E+03  0.91217859209E+02 0.  0.
    9000005    2    3    3    0    0  0.24254797783E+02  0.31446400391E+02  0.93856165990E+02  0.10192832696E+03  0.17979514657E+01 0.  0.
         22    1    3    3    0    0 -0.24254797783E+02 -0.31446400391E+02  0.21579751338E+02  0.45197975407E+02  0.00000000000E+00 0. -1.
         22    1    4    4    0    0  0.15811950091E-01  0.69782089345E-01  0.50291238974E-01  0.87457226554E-01  0.00000000000E+00 0. -1.
         22    1    4    4    0    0  0.24238985833E+02  0.31376618302E+02  0.93805874751E+02  0.10184086973E+03  0.00000000000E+00 0. -1.
<mgrwt>
<rscale>  0 0.91217859E+02</rscale>
<asrwt>0</asrwt>
<pdfrwt beam="2">  1        1 0.24377220E-02 0.91217859E+02</pdfrwt>
<pdfrwt beam="1">  1       -1 0.20197094E-01 0.91217859E+02</pdfrwt>
<totfact> 0.76972298E+04</totfact>
</mgrwt>
</event>
<event>
 7    1  0.3565607E-009  0.9142054E+02  0.7818608E-02  0.1299448E+00
         -1   -1    0    0    0  501 -0.00000000000E+00  0.00000000000E+00  0.12796812958E+03  0.12796812968E+03  0.50400000000E-02 0.  1.
          1   -1    0    0  501    0  0.00000000000E+00 -0.00000000000E+00 -0.16327727435E+02  0.16327728213E+02  0.50400000000E-02 0. -1.
         23    2    1    2    0    0  0.17763568394E-14  0.00000000000E+00  0.11164040214E+03  0.14429585789E+03  0.91420540436E+02 0.  0.
    9000005    2    3    3    0    0  0.12938172022E+02 -0.40243132013E+02  0.28390969290E+02  0.50928979182E+02  0.89878457186E+00 0.  0.
         22    1    3    3    0    0 -0.12938172022E+02  0.40243132013E+02  0.83249432851E+02  0.93366878707E+02  0.00000000000E+00 0.  1.
         22    1    4    4    0    0  0.25692695082E+01 -0.69759033075E+01  0.51647780744E+01  0.90520332147E+01  0.00000000000E+00 0. -1.
         22    1    4    4    0    0  0.10368902514E+02 -0.33267228706E+02  0.23226191216E+02  0.41876945967E+02  0.00000000000E+00 0. -1.
<mgrwt>
<rscale>  0 0.91420540E+02</rscale>
<asrwt>0</asrwt>
<pdfrwt beam="2">  1        1 0.25119582E-02 0.91420540E+02</pdfrwt>
<pdfrwt beam="1">  1       -1 0.19687404E-01 0.91420540E+02</pdfrwt>
<totfact> 0.76950858E+04</totfact>
</mgrwt>
</event>
<event>
 7    1  0.3565607E-009  0.8242744E+02  0.7818608E-02  0.1322301E+00
          1   -1    0    0  501    0  0.00000000000E+00  0.00000000000E+00  0.11816385967E+03  0.11816385978E+03  0.50400000000E-02 0. -1.
         -1   -1    0    0    0  501 -0.00000000000E+00 -0.00000000000E+00 -0.14374704897E+02  0.14374705781E+02  0.50400000000E-02 0.  1.
         23    2    1    2    0    0  0.00000000000E+00  0.00000000000E+00  0.10378915478E+03  0.13253856556E+03  0.82427439071E+02 0.  0.
    9000005    2    3    3    0    0 -0.32564538651E+02  0.22156795498E+02  0.64079417194E+02  0.76607929742E+02  0.14533768512E+02 0.  0.
         22    1    3    3    0    0  0.32564538651E+02 -0.22156795498E+02  0.39709737581E+02  0.55930635818E+02  0.00000000000E+00 0.  1.
         22    1    4    4    0    0 -0.77364263669E+01  0.11868764530E+02  0.30243328676E+02  0.33397287222E+02  0.00000000000E+00 0.  1.
         22    1    4    4    0    0 -0.24828112284E+02  0.10288030968E+02  0.33836088519E+02  0.43210642520E+02  0.00000000000E+00 0.  1.
<mgrwt>
<rscale>  0 0.82427439E+02</rscale>
<asrwt>0</asrwt>
<pdfrwt beam="1">  1        1 0.18179056E-01 0.82427439E+02</pdfrwt>
<pdfrwt beam="2">  1       -1 0.22114931E-02 0.82427439E+02</pdfrwt>
<totfact> 0.14101856E+05</totfact>
</mgrwt>
</event>
<event>
 7    1  0.3565607E-009  0.8930278E+02  0.7818608E-02  0.1304549E+00
          1   -1    0    0  501    0  0.00000000000E+00  0.00000000000E+00  0.59112479502E+01  0.59112500988E+01  0.50400000000E-02 0. -1.
         -1   -1    0    0    0  501 -0.00000000000E+00 -0.00000000000E+00 -0.33728009450E+03  0.33728009454E+03  0.50400000000E-02 0.  1.
         23    2    1    2    0    0  0.00000000000E+00 -0.35527136788E-14 -0.33136884655E+03  0.34319134464E+03  0.89302780302E+02 0.  0.
    9000005    2    3    3    0    0  0.33149454914E+02 -0.27000359552E+02 -0.19823566530E+03  0.20336162774E+03  0.15187720830E+02 0.  0.
         22    1    3    3    0    0 -0.33149454914E+02  0.27000359552E+02 -0.13313318125E+03  0.13982971690E+03  0.00000000000E+00 0. -1.
         22    1    4    4    0    0  0.18671248973E+02 -0.99929303428E+01 -0.67894079265E+02  0.71120181343E+02  0.00000000000E+00 0.  1.
         22    1    4    4    0    0  0.14478205941E+02 -0.17007429209E+02 -0.13034158604E+03  0.13224144640E+03  0.00000000000E+00 0.  1.
<mgrwt>
<rscale>  0 0.89302780E+02</rscale>
<asrwt>0</asrwt>
<pdfrwt beam="1">  1        1 0.90942319E-03 0.89302780E+02</pdfrwt>
<pdfrwt beam="2">  1       -1 0.51889230E-01 0.89302780E+02</pdfrwt>
<totfact> 0.60942120E+04</totfact>
</mgrwt>
</event>
<event>
 7    1  0.3565607E-009  0.9108875E+02  0.7818608E-02  0.1300236E+00
         -1   -1    0    0    0  501 -0.00000000000E+00  0.00000000000E+00  0.89793293231E+01  0.89793307375E+01  0.50400000000E-02 0.  1.
          1   -1    0    0  501    0  0.00000000000E+00 -0.00000000000E+00 -0.23100723394E+03  0.23100723400E+03  0.50400000000E-02 0. -1.
         23    2    1    2    0    0  0.00000000000E+00  0.00000000000E+00 -0.22202790462E+03  0.23998656474E+03  0.91088752454E+02 0.  0.
    9000005    2    3    3    0    0  0.10886768995E+02 -0.35181091731E+02 -0.46045672428E+02  0.60192301752E+02  0.12111081138E+02 0.  0.
         22    1    3    3    0    0 -0.10886768995E+02  0.35181091731E+02 -0.17598223219E+03  0.17979426298E+03  0.00000000000E+00 0. -1.
         22    1    4    4    0    0  0.54412776071E+01 -0.53323866796E+01 -0.48585295945E+01  0.90358817787E+01  0.00000000000E+00 0.  1.
         22    1    4    4    0    0  0.54454913883E+01 -0.29848705051E+02 -0.41187142833E+02  0.51156419973E+02  0.00000000000E+00 0.  1.
<mgrwt>
<rscale>  0 0.91088752E+02</rscale>
<asrwt>0</asrwt>
<pdfrwt beam="2">  1        1 0.35539570E-01 0.91088752E+02</pdfrwt>
<pdfrwt beam="1">  1       -1 0.13814356E-02 0.91088752E+02</pdfrwt>
<totfact> 0.12209432E+05</totfact>
</mgrwt>
</event>
<event>
 7    1  0.3565607E-009  0.9153207E+02  0.7818608E-02  0.1299183E+00
         -1   -1    0    0    0  501 -0.00000000000E+00  0.00000000000E+00  0.65377619784E+03  0.65377619786E+03  0.50400000000E-02 0.  1.
          1   -1    0    0  501    0  0.00000000000E+00 -0.00000000000E+00 -0.32037398043E+01  0.32037437686E+01  0.50400000000E-02 0. -1.
         23    2    1    2    0    0  0.00000000000E+00  0.00000000000E+00  0.65057245803E+03  0.65697994163E+03  0.91532073870E+02 0.  0.
    9000005    2    3    3    0    0 -0.27819155693E+02  0.29493978029E+02  0.46875242686E+03  0.47069434395E+03  0.13436055268E+02 0.  0.
         22    1    3    3    0    0  0.27819155693E+02 -0.29493978029E+02  0.18182003118E+03  0.18628559767E+03  0.00000000000E+00 0. -1.
         22    1    4    4    0    0 -0.27836750508E+02  0.23545149397E+02  0.38097825745E+03  0.38271881504E+03  0.00000000000E+00 0.  1.
         22    1    4    4    0    0  0.17594814783E-01  0.59488286320E+01  0.87774169408E+02  0.87975528909E+02  0.00000000000E+00 0.  1.
<mgrwt>
<rscale>  0 0.91532074E+02</rscale>
<asrwt>0</asrwt>
<pdfrwt beam="2">  1        1 0.49288324E-03 0.91532074E+02</pdfrwt>
<pdfrwt beam="1">  1       -1 0.10058098E+00 0.91532074E+02</pdfrwt>
<totfact> 0.38583505E+04</totfact>
</mgrwt>
</event>
<event>
 7    1  0.3565607E-009  0.9174671E+02  0.7818608E-02  0.1298676E+00
         -1   -1    0    0    0  501 -0.00000000000E+00  0.00000000000E+00  0.43457346443E+01  0.43457375669E+01  0.50400000000E-02 0.  1.
          1   -1    0    0  501    0  0.00000000000E+00 -0.00000000000E+00 -0.48423667467E+03  0.48423667470E+03  0.50400000000E-02 0. -1.
         23    2    1    2    0    0  0.00000000000E+00  0.00000000000E+00 -0.47989094003E+03  0.48858241227E+03  0.91746712498E+02 0.  0.
    9000005    2    3    3    0    0  0.12350144321E+02 -0.27995558790E+02 -0.42069647026E+03  0.42194711661E+03  0.10843050519E+02 0.  0.
         22    1    3    3    0    0 -0.12350144321E+02  0.27995558790E+02 -0.59194469766E+02  0.66635295659E+02  0.00000000000E+00 0.  1.
         22    1    4    4    0    0 -0.19829988572E+01 -0.45477671468E+01 -0.59162467930E+02  0.59370127860E+02  0.00000000000E+00 0. -1.
         22    1    4    4    0    0  0.14333143179E+02 -0.23447791643E+02 -0.36153400233E+03  0.36257698875E+03  0.00000000000E+00 0. -1.
<mgrwt>
<rscale>  0 0.91746712E+02</rscale>
<asrwt>0</asrwt>
<pdfrwt beam="2">  1        1 0.74497907E-01 0.91746712E+02</pdfrwt>
<pdfrwt beam="1">  1       -1 0.66857517E-03 0.91746712E+02</pdfrwt>
<totfact> 0.13644733E+05</totfact>
</mgrwt>
</event>
<event>
 7    1  0.3565607E-009  0.9226960E+02  0.7818608E-02  0.1297447E+00
         -1   -1    0    0    0  501 -0.00000000000E+00  0.00000000000E+00  0.41657584142E+01  0.41657614631E+01  0.50400000000E-02 0.  1.
          1   -1    0    0  501    0  0.00000000000E+00 -0.00000000000E+00 -0.51093194467E+03  0.51093194470E+03  0.50400000000E-02 0. -1.
         23    2    1    2    0    0 -0.35527136788E-14  0.00000000000E+00 -0.50676618626E+03  0.51509770616E+03  0.92269601478E+02 0.  0.
    9000005    2    3    3    0    0  0.21332791433E+02 -0.36213027029E+02 -0.35842516080E+03  0.36091751564E+03  0.51367187367E+01 0.  0.
         22    1    3    3    0    0 -0.21332791433E+02  0.36213027029E+02 -0.14834102546E+03  0.15418019053E+03  0.00000000000E+00 0.  1.
         22    1    4    4    0    0  0.11315888201E+02 -0.23427590329E+02 -0.23147523897E+03  0.23293279625E+03  0.00000000000E+00 0. -1.
         22    1    4    4    0    0  0.10016903232E+02 -0.12785436700E+02 -0.12694992184E+03  0.12798471939E+03  0.00000000000E+00 0. -1.
<mgrwt>
<rscale>  0 0.92269601E+02</rscale>
<asrwt>0</asrwt>
<pdfrwt beam="2">  1        1 0.78604865E-01 0.92269601E+02</pdfrwt>
<pdfrwt beam="1">  1       -1 0.64088655E-03 0.92269601E+02</pdfrwt>
<totfact> 0.13527019E+05</totfact>
</mgrwt>
</event>
<event>
 7    1  0.3565607E-009  0.9199077E+02  0.7818608E-02  0.1298101E+00
         -1   -1    0    0    0  501 -0.00000000000E+00  0.00000000000E+00  0.94168979715E+01  0.94168993202E+01  0.50400000000E-02 0.  1.
          1   -1    0    0  501    0  0.00000000000E+00 -0.00000000000E+00 -0.22465732987E+03  0.22465732992E+03  0.50400000000E-02 0. -1.
         23    2    1    2    0    0  0.00000000000E+00  0.00000000000E+00 -0.21524043189E+03  0.23407422924E+03  0.91990767327E+02 0.  0.
    9000005    2    3    3    0    0  0.27049432101E+02  0.27820669702E+02 -0.16942828493E+03  0.17403745511E+03  0.87994661353E+01 0.  0.
         22    1    3    3    0    0 -0.27049432101E+02 -0.27820669702E+02 -0.45812146960E+02  0.60036774137E+02  0.00000000000E+00 0.  1.
         22    1    4    4    0    0  0.98017524309E+01  0.66121624002E+01 -0.38024154011E+02  0.39819986572E+02  0.00000000000E+00 0. -1.
         22    1    4    4    0    0  0.17247679670E+02  0.21208507302E+02 -0.13140413092E+03  0.13421746853E+03  0.00000000000E+00 0. -1.
<mgrwt>
<rscale>  0 0.91990767E+02</rscale>
<asrwt>0</asrwt>
<pdfrwt beam="2">  1        1 0.34562662E-01 0.91990767E+02</pdfrwt>
<pdfrwt beam="1">  1       -1 0.14487538E-02 0.91990767E+02</pdfrwt>
<totfact> 0.11826730E+05</totfact>
</mgrwt>
</event>
<event>
 7    1  0.3565607E-009  0.8980530E+02  0.7818608E-02  0.1303324E+00
          1   -1    0    0  501    0  0.00000000000E+00  0.00000000000E+00  0.23430600976E+03  0.23430600981E+03  0.50400000000E-02 0. -1.
         -1   -1    0    0    0  501 -0.00000000000E+00 -0.00000000000E+00 -0.86051909503E+01  0.86051924263E+01  0.50400000000E-02 0.  1.
         23    2    1    2    0    0 -0.71054273576E-14  0.17763568394E-14  0.22570081881E+03  0.24291120224E+03  0.89805303644E+02 0.  0.
    9000005    2    3    3    0    0  0.42850306591E+02 -0.12428754988E+02  0.12644783847E+03  0.13409127377E+03  0.88945075412E+00 0.  0.
         22    1    3    3    0    0 -0.42850306591E+02  0.12428754988E+02  0.99252980343E+02  0.10881992847E+03  0.00000000000E+00 0.  1.
         22    1    4    4    0    0  0.37397681137E+02 -0.11096954556E+02  0.11002025390E+03  0.11673125213E+03  0.00000000000E+00 0.  1.
         22    1    4    4    0    0  0.54526254547E+01 -0.13318004319E+01  0.16427584562E+02  0.17360021639E+02  0.00000000000E+00 0.  1.
<mgrwt>
<rscale>  0 0.89805304E+02</rscale>
<asrwt>0</asrwt>
<pdfrwt beam="1">  1        1 0.36047085E-01 0.89805304E+02</pdfrwt>
<pdfrwt beam="2">  1       -1 0.13238754E-02 0.89805304E+02</pdfrwt>
<totfact> 0.12716064E+05</totfact>
</mgrwt>
</event>
<event>
 7    1  0.3565607E-009  0.9204191E+02  0.7818608E-02  0.1297981E+00
         -1   -1    0    0    0  501 -0.00000000000E+00  0.00000000000E+00  0.98488745966E+00  0.98490035526E+00  0.50400000000E-02 0.  1.
          1   -1    0    0  501    0  0.00000000000E+00 -0.00000000000E+00 -0.21504127428E+04  0.21504127428E+04  0.50400000000E-02 0. -1.
         23    2    1    2    0    0 -0.17763568394E-14  0.00000000000E+00 -0.21494278553E+04  0.21513976432E+04  0.92041912662E+02 0.  0.
    9000005    2    3    3    0    0 -0.12603820542E+02  0.14411007686E+02 -0.20510080674E+04  0.20511330527E+04  0.12090246252E+02 0.  0.
         22    1    3    3    0    0  0.12603820542E+02 -0.14411007686E+02 -0.98419787949E+02  0.10026459043E+03  0.00000000000E+00 0.  1.
         22    1    4    4    0    0 -0.83514321121E+01  0.11467064533E+01 -0.93662614223E+03  0.93666407621E+03  0.00000000000E+00 0.  1.
         22    1    4    4    0    0 -0.42523884301E+01  0.13264301233E+02 -0.11143819252E+04  0.11144689765E+04  0.00000000000E+00 0.  1.
<mgrwt>
<rscale>  0 0.92041913E+02</rscale>
<asrwt>0</asrwt>
<pdfrwt beam="2">  1        1 0.33082897E+00 0.92041913E+02</pdfrwt>
<pdfrwt beam="1">  1       -1 0.15152386E-03 0.92041913E+02</pdfrwt>
<totfact> 0.69148754E+04</totfact>
</mgrwt>
</event>
<event>
 7    1  0.3565607E-009  0.9156562E+02  0.7818608E-02  0.1299104E+00
         -1   -1    0    0    0  501 -0.00000000000E+00  0.00000000000E+00  0.51092113221E+01  0.51092138080E+01  0.50400000000E-02 0.  1.
          1   -1    0    0  501    0  0.00000000000E+00 -0.00000000000E+00 -0.41025218159E+03  0.41025218162E+03  0.50400000000E-02 0. -1.
         23    2    1    2    0    0  0.00000000000E+00 -0.71054273576E-14 -0.40514297027E+03  0.41536139543E+03  0.91565618303E+02 0.  0.
    9000005    2    3    3    0    0 -0.11283697737E+02  0.37391280380E+02 -0.30755919406E+03  0.31025181897E+03  0.11751750688E+02 0.  0.
         22    1    3    3    0    0  0.11283697737E+02 -0.37391280380E+02 -0.97583776209E+02  0.10510957645E+03  0.00000000000E+00 0.  1.
         22    1    4    4    0    0  0.13173227437E+01  0.13653098737E+02 -0.90078762831E+02  0.91117100247E+02  0.00000000000E+00 0. -1.
         22    1    4    4    0    0 -0.12601020481E+02  0.23738181643E+02 -0.21748043123E+03  0.21913471873E+03  0.00000000000E+00 0. -1.
<mgrwt>
<rscale>  0 0.91565618E+02</rscale>
<asrwt>0</asrwt>
<pdfrwt beam="2">  1        1 0.63115695E-01 0.91565618E+02</pdfrwt>
<pdfrwt beam="1">  1       -1 0.78603303E-03 0.91565618E+02</pdfrwt>
<totfact> 0.13392260E+05</totfact>
</mgrwt>
</event>
<event>
 7    1  0.3565607E-009  0.8854705E+02  0.7818608E-02  0.1306409E+00
          1   -1    0    0  501    0  0.00000000000E+00  0.00000000000E+00  0.15268526249E+02  0.15268527080E+02  0.50400000000E-02 0. -1.
         -1   -1    0    0    0  501 -0.00000000000E+00 -0.00000000000E+00 -0.12837812820E+03  0.12837812830E+03  0.50400000000E-02 0.  1.
         23    2    1    2    0    0  0.00000000000E+00  0.00000000000E+00 -0.11310960195E+03  0.14364665538E+03  0.88547047089E+02 0.  0.
    9000005    2    3    3    0    0 -0.20617725945E+02 -0.79673830178E+01 -0.11797566037E+03  0.12101375146E+03  0.15411093015E+02 0.  0.
         22    1    3    3    0    0  0.20617725945E+02  0.79673830178E+01  0.48660584165E+01  0.22632903919E+02  0.00000000000E+00 0. -1.
         22    1    4    4    0    0 -0.99020794662E+01 -0.53904920139E+01 -0.93424606955E+02  0.94102421683E+02  0.00000000000E+00 0. -1.
         22    1    4    4    0    0 -0.10715646479E+02 -0.25768910039E+01 -0.24551053416E+02  0.26911329781E+02  0.00000000000E+00 0. -1.
<mgrwt>
<rscale>  0 0.88547047E+02</rscale>
<asrwt>0</asrwt>
<pdfrwt beam="1">  1        1 0.23490042E-02 0.88547047E+02</pdfrwt>
<pdfrwt beam="2">  1       -1 0.19750481E-01 0.88547047E+02</pdfrwt>
<totfact> 0.83517038E+04</totfact>
</mgrwt>
</event>
<event>
 7    1  0.3565607E-009  0.1264016E+03  0.7818608E-02  0.1232895E+00
          1   -1    0    0  501    0  0.00000000000E+00  0.00000000000E+00  0.92552438598E+02  0.92552438735E+02  0.50400000000E-02 0. -1.
         -1   -1    0    0    0  501 -0.00000000000E+00 -0.00000000000E+00 -0.43157614878E+02  0.43157615172E+02  0.50400000000E-02 0.  1.
         23    2    1    2    0    0  0.00000000000E+00 -0.17763568394E-14  0.49394823720E+02  0.13571005391E+03  0.12640162230E+03 0.  0.
    9000005    2    3    3    0    0  0.36189101341E+02  0.15500524029E+02  0.77737078421E+02  0.87200253840E+02  0.33035749257E+01 0.  0.
         22    1    3    3    0    0 -0.36189101341E+02 -0.15500524029E+02 -0.28342254701E+02  0.48509800068E+02  0.00000000000E+00 0.  1.
         22    1    4    4    0    0  0.15075725142E+02  0.49049535591E+01  0.32920819300E+02  0.36539244674E+02  0.00000000000E+00 0. -1.
         22    1    4    4    0    0  0.21113376200E+02  0.10595570470E+02  0.44816259121E+02  0.50661009166E+02  0.00000000000E+00 0. -1.
<mgrwt>
<rscale>  0 0.12640162E+03</rscale>
<asrwt>0</asrwt>
<pdfrwt beam="1">  1        1 0.14238836E-01 0.12640162E+03</pdfrwt>
<pdfrwt beam="2">  1       -1 0.66396332E-02 0.12640162E+03</pdfrwt>
<totfact> 0.41359210E+04</totfact>
</mgrwt>
</event>
<event>
 7    1  0.3565607E-009  0.8930146E+02  0.7818608E-02  0.1304552E+00
          1   -1    0    0  501    0  0.00000000000E+00  0.00000000000E+00  0.34165119346E+02  0.34165119718E+02  0.50400000000E-02 0. -1.
         -1   -1    0    0    0  501 -0.00000000000E+00 -0.00000000000E+00 -0.58354474218E+02  0.58354474436E+02  0.50400000000E-02 0.  1.
         23    2    1    2    0    0 -0.88817841970E-15  0.00000000000E+00 -0.24189354873E+02  0.92519594154E+02  0.89301458069E+02 0.  0.
    9000005    2    3    3    0    0 -0.70110546570E+01  0.34492314646E+02  0.14372110266E+02  0.40309812975E+02  0.13395850535E+02 0.  0.
         22    1    3    3    0    0  0.70110546570E+01 -0.34492314646E+02 -0.38561465138E+02  0.52209781178E+02  0.00000000000E+00 0.  1.
         22    1    4    4    0    0  0.24575640099E+01  0.68970828760E+00  0.82060439968E+00  0.26811769739E+01  0.00000000000E+00 0.  1.
         22    1    4    4    0    0 -0.94686186669E+01  0.33802606359E+02  0.13551505866E+02  0.37628636002E+02  0.00000000000E+00 0.  1.
<mgrwt>
<rscale>  0 0.89301458E+02</rscale>
<asrwt>0</asrwt>
<pdfrwt beam="1">  1        1 0.52561723E-02 0.89301458E+02</pdfrwt>
<pdfrwt beam="2">  1       -1 0.89776114E-02 0.89301458E+02</pdfrwt>
<totfact> 0.93873306E+04</totfact>
</mgrwt>
</event>
<event>
 7    1  0.3565607E-009  0.9118995E+02  0.7818608E-02  0.1299995E+00
          1   -1    0    0  501    0  0.00000000000E+00  0.00000000000E+00  0.11891965008E+03  0.11891965018E+03  0.50400000000E-02 0. -1.
         -1   -1    0    0    0  501 -0.00000000000E+00 -0.00000000000E+00 -0.17481565337E+02  0.17481566064E+02  0.50400000000E-02 0.  1.
         23    2    1    2    0    0  0.00000000000E+00  0.00000000000E+00  0.10143808474E+03  0.13640121625E+03  0.91189948779E+02 0.  0.
    9000005    2    3    3    0    0  0.10117567638E+02 -0.35944963561E+02  0.87741284066E+02  0.96626752970E+02  0.15613804139E+02 0.  0.
         22    1    3    3    0    0 -0.10117567638E+02  0.35944963561E+02  0.13696800674E+02  0.39774463278E+02  0.00000000000E+00 0.  1.
         22    1    4    4    0    0 -0.48201490460E+00 -0.58606191624E+01  0.30834842228E+02  0.31390550976E+02  0.00000000000E+00 0. -1.
         22    1    4    4    0    0  0.10599582543E+02 -0.30084344399E+02  0.56906441837E+02  0.65236201994E+02  0.00000000000E+00 0. -1.
<mgrwt>
<rscale>  0 0.91189949E+02</rscale>
<asrwt>0</asrwt>
<pdfrwt beam="1">  1        1 0.18295331E-01 0.91189949E+02</pdfrwt>
<pdfrwt beam="2">  1       -1 0.26894717E-02 0.91189949E+02</pdfrwt>
<totfact> 0.10752781E+05</totfact>
</mgrwt>
</event>
<event>
 7    1  0.3565607E-009  0.9284749E+02  0.7818608E-02  0.1296099E+00
         -1   -1    0    0    0  501 -0.00000000000E+00  0.00000000000E+00  0.99536893232E+01  0.99536905992E+01  0.50400000000E-02 0.  1.
          1   -1    0    0  501    0  0.00000000000E+00 -0.00000000000E+00 -0.21651910949E+03  0.21651910955E+03  0.50400000000E-02 0. -1.
         23    2    1    2    0    0  0.00000000000E+00  0.17763568394E-14 -0.20656542017E+03  0.22647280015E+03  0.92847489994E+02 0.  0.
    9000005    2    3    3    0    0 -0.22377588854E+02 -0.15209388854E+02 -0.19463513365E+03  0.19690231269E+03  0.12474113164E+02 0.  0.
         22    1    3    3    0    0  0.22377588854E+02  0.15209388854E+02 -0.11930286518E+02  0.29570487460E+02  0.00000000000E+00 0.  1.
         22    1    4    4    0    0 -0.10701332148E+02 -0.19914598435E+01 -0.10393044323E+03  0.10449890646E+03  0.00000000000E+00 0.  1.
         22    1    4    4    0    0 -0.11676256706E+02 -0.13217929010E+02 -0.90704690426E+02  0.92403406232E+02  0.00000000000E+00 0.  1.
<mgrwt>
<rscale>  0 0.92847490E+02</rscale>
<asrwt>0</asrwt>
<pdfrwt beam="2">  1        1 0.33310629E-01 0.92847490E+02</pdfrwt>
<pdfrwt beam="1">  1       -1 0.15313371E-02 0.92847490E+02</pdfrwt>
<totfact> 0.11453151E+05</totfact>
</mgrwt>
</event>
<event>
 7    1  0.3565607E-009  0.9273109E+02  0.7818608E-02  0.1296370E+00
          1   -1    0    0  501    0  0.00000000000E+00  0.00000000000E+00  0.49558969225E+03  0.49558969227E+03  0.50400000000E-02 0. -1.
         -1   -1    0    0    0  501 -0.00000000000E+00 -0.00000000000E+00 -0.43377877241E+01  0.43377906520E+01  0.50400000000E-02 0.  1.
         23    2    1    2    0    0  0.00000000000E+00  0.00000000000E+00  0.49125190452E+03  0.49992748292E+03  0.92731086945E+02 0.  0.
    9000005    2    3    3    0    0  0.16265094181E+02  0.33834553162E+02  0.39049299339E+03  0.39240219079E+03  0.92396521729E+01 0.  0.
         22    1    3    3    0    0 -0.16265094181E+02 -0.33834553162E+02  0.10075891113E+03  0.10752529214E+03  0.00000000000E+00 0.  1.
         22    1    4    4    0    0  0.12158062093E+02  0.20132516373E+02  0.20131019966E+03  0.20267938518E+03  0.00000000000E+00 0. -1.
         22    1    4    4    0    0  0.41070320874E+01  0.13702036789E+02  0.18918279373E+03  0.18972280561E+03  0.00000000000E+00 0. -1.
<mgrwt>
<rscale>  0 0.92731087E+02</rscale>
<asrwt>0</asrwt>
<pdfrwt beam="1">  1        1 0.76244521E-01 0.92731087E+02</pdfrwt>
<pdfrwt beam="2">  1       -1 0.66735260E-03 0.92731087E+02</pdfrwt>
<totfact> 0.13301665E+05</totfact>
</mgrwt>
</event>
<event>
 7    1  0.3565607E-009  0.9144861E+02  0.7818608E-02  0.1299381E+00
         -1   -1    0    0    0  501 -0.00000000000E+00  0.00000000000E+00  0.37014138237E+03  0.37014138240E+03  0.50400000000E-02 0.  1.
          1   -1    0    0  501    0  0.00000000000E+00 -0.00000000000E+00 -0.56484135310E+01  0.56484157795E+01  0.50400000000E-02 0. -1.
         23    2    1    2    0    0  0.00000000000E+00 -0.44408920985E-15  0.36449296883E+03  0.37578979818E+03  0.91448608988E+02 0.  0.
    9000005    2    3    3    0    0  0.15798523560E+02 -0.34971812410E+01  0.35797077857E+03  0.35834380755E+03  0.23200157774E+01 0.  0.
         22    1    3    3    0    0 -0.15798523560E+02  0.34971812410E+01  0.65221902627E+01  0.17445990632E+02  0.00000000000E+00 0. -1.
         22    1    4    4    0    0  0.67742267009E+01 -0.49717722187E+00  0.13634097932E+03  0.13651007279E+03  0.00000000000E+00 0.  1.
         22    1    4    4    0    0  0.90242968586E+01 -0.30000040192E+01  0.22162979925E+03  0.22183373476E+03  0.00000000000E+00 0.  1.
<mgrwt>
<rscale>  0 0.91448609E+02</rscale>
<asrwt>0</asrwt>
<pdfrwt beam="2">  1        1 0.86898685E-03 0.91448609E+02</pdfrwt>
<pdfrwt beam="1">  1       -1 0.56944830E-01 0.91448609E+02</pdfrwt>
<totfact> 0.54917088E+04</totfact>
</mgrwt>
</event>
<event>
 7    1  0.3565607E-009  0.9389227E+02  0.7818608E-02  0.1293691E+00
          1   -1    0    0  501    0  0.00000000000E+00  0.00000000000E+00  0.56694891678E+01  0.56694914080E+01  0.50400000000E-02 0. -1.
         -1   -1    0    0    0  501 -0.00000000000E+00 -0.00000000000E+00 -0.38873678859E+03  0.38873678862E+03  0.50400000000E-02 0.  1.
         23    2    1    2    0    0  0.17763568394E-14 -0.35527136788E-14 -0.38306729942E+03  0.39440628003E+03  0.93892267206E+02 0.  0.
    9000005    2    3    3    0    0 -0.84798676902E+01  0.27171439275E+02 -0.34705127175E+03  0.34850040331E+03  0.14062382954E+02 0.  0.
         22    1    3    3    0    0  0.84798676902E+01 -0.27171439275E+02 -0.36016027668E+02  0.45905876719E+02  0.00000000000E+00 0. -1.
         22    1    4    4    0    0  0.36650678798E+01  0.79064608617E+01 -0.11726191929E+03  0.11758529909E+03  0.00000000000E+00 0. -1.
         22    1    4    4    0    0 -0.12144935570E+02  0.19264978413E+02 -0.22978935246E+03  0.23091510422E+03  0.00000000000E+00 0. -1.
<mgrwt>
<rscale>  0 0.93892267E+02</rscale>
<asrwt>0</asrwt>
<pdfrwt beam="1">  1        1 0.87222958E-03 0.93892267E+02</pdfrwt>
<pdfrwt beam="2">  1       -1 0.59805639E-01 0.93892267E+02</pdfrwt>
<totfact> 0.50048727E+04</totfact>
</mgrwt>
</event>
<event>
 7    1  0.3565607E-009  0.8871592E+02  0.7818608E-02  0.1305991E+00
         -1   -1    0    0    0  501 -0.00000000000E+00  0.00000000000E+00  0.46728924555E+01  0.46728951735E+01  0.50400000000E-02 0.  1.
          1   -1    0    0  501    0  0.00000000000E+00 -0.00000000000E+00 -0.42107280052E+03  0.42107280055E+03  0.50400000000E-02 0. -1.
         23    2    1    2    0    0  0.00000000000E+00  0.00000000000E+00 -0.41639990806E+03  0.42574569572E+03  0.88715917349E+02 0.  0.
    9000005    2    3    3    0    0 -0.27901832973E+02  0.12201445666E+02 -0.36086577603E+03  0.36240986558E+03  0.13762804851E+02 0.  0.
         22    1    3    3    0    0  0.27901832973E+02 -0.12201445666E+02 -0.55534132029E+02  0.63335830142E+02  0.00000000000E+00 0.  1.
         22    1    4    4    0    0 -0.22818399771E+02  0.98622188258E+01 -0.21424059809E+03  0.21567794648E+03  0.00000000000E+00 0.  1.
         22    1    4    4    0    0 -0.50834332018E+01  0.23392268399E+01 -0.14662517794E+03  0.14673191910E+03  0.00000000000E+00 0.  1.
<mgrwt>
<rscale>  0 0.88715917E+02</rscale>
<asrwt>0</asrwt>
<pdfrwt beam="2">  1        1 0.64780401E-01 0.88715917E+02</pdfrwt>
<pdfrwt beam="1">  1       -1 0.71890707E-03 0.88715917E+02</pdfrwt>
<totfact> 0.14622674E+05</totfact>
</mgrwt>
</event>
<event>
 7    1  0.3565607E-009  0.8959256E+02  0.7818608E-02  0.1303841E+00
         -1   -1    0    0    0  501 -0.00000000000E+00  0.00000000000E+00  0.16711668967E+02  0.16711669727E+02  0.50400000000E-02 0.  1.
          1   -1    0    0  501    0  0.00000000000E+00 -0.00000000000E+00 -0.12007816995E+03  0.12007817005E+03  0.50400000000E-02 0. -1.
         23    2    1    2    0    0  0.00000000000E+00  0.00000000000E+00 -0.10336650098E+03  0.13678983978E+03  0.89592559636E+02 0.  0.
    9000005    2    3    3    0    0  0.41303197599E+01 -0.10409338406E+02 -0.11786373950E+03  0.11847089352E+03  0.42517824428E+01 0.  0.
         22    1    3    3    0    0 -0.41303197599E+01  0.10409338406E+02  0.14497238523E+02  0.18318946262E+02  0.00000000000E+00 0.  1.
         22    1    4    4    0    0 -0.87811512025E+00 -0.20714412602E+01 -0.21228652290E+02  0.21347543960E+02  0.00000000000E+00 0.  1.
         22    1    4    4    0    0  0.50084348801E+01 -0.83378971462E+01 -0.96635087212E+02  0.97123349557E+02  0.00000000000E+00 0.  1.
<mgrwt>
<rscale>  0 0.89592560E+02</rscale>
<asrwt>0</asrwt>
<pdfrwt beam="2">  1        1 0.18473564E-01 0.89592560E+02</pdfrwt>
<pdfrwt beam="1">  1       -1 0.25710261E-02 0.89592560E+02</pdfrwt>
<totfact> 0.11298725E+05</totfact>
</mgrwt>
</event>
<event>
 7    1  0.3565607E-009  0.8988347E+02  0.7818608E-02  0.1303134E+00
          1   -1    0    0  501    0  0.00000000000E+00  0.00000000000E+00  0.84227020191E+02  0.84227020342E+02  0.50400000000E-02 0. -1.
         -1   -1    0    0    0  501 -0.00000000000E+00 -0.00000000000E+00 -0.23979947444E+02  0.23979947973E+02  0.50400000000E-02 0.  1.
         23    2    1    2    0    0 -0.44408920985E-15  0.00000000000E+00  0.60247072748E+02  0.10820696832E+03  0.89883470212E+02 0.  0.
    9000005    2    3    3    0    0 -0.26555006648E+01  0.37038097787E+02  0.31112702186E+01  0.40064673798E+02  0.14718210240E+02 0.  0.
         22    1    3    3    0    0  0.26555006648E+01 -0.37038097787E+02  0.57135802529E+02  0.68142294517E+02  0.00000000000E+00 0. -1.
         22    1    4    4    0    0  0.49793626448E+01  0.13517830764E+02 -0.27145307172E+01  0.14659279584E+02  0.00000000000E+00 0.  1.
         22    1    4    4    0    0 -0.76348633096E+01  0.23520267024E+02  0.58258009358E+01  0.25405394214E+02  0.00000000000E+00 0.  1.
<mgrwt>
<rscale>  0 0.89883470E+02</rscale>
<asrwt>0</asrwt>
<pdfrwt beam="1">  1        1 0.12958003E-01 0.89883470E+02</pdfrwt>
<pdfrwt beam="2">  1       -1 0.36892227E-02 0.89883470E+02</pdfrwt>
<totfact> 0.10561887E+05</totfact>
</mgrwt>
</event>
<event>
 7    1  0.5952043E-009  0.9191444E+02  0.7818608E-02  0.1298281E+00
          1   -1    0    0  501    0  0.00000000000E+00  0.00000000000E+00  0.31111743710E+03  0.31111743714E+03  0.50400000000E-02 0. -1.
         -1   -1    0    0    0  501 -0.00000000000E+00 -0.00000000000E+00 -0.67886451793E+01  0.67886470502E+01  0.50400000000E-02 0.  1.
         23    2    1    2    0    0  0.00000000000E+00  0.00000000000E+00  0.30432879192E+03  0.31790608419E+03  0.91914442683E+02 0.  0.
    9000005    2    3    3    0    0  0.18991452638E+02 -0.15921353695E+02  0.28511126505E+03  0.28654562954E+03  0.14345716254E+02 0.  0.
         22    1    3    3    0    0 -0.18991452638E+02  0.15921353695E+02  0.19217526873E+02  0.31360454650E+02  0.00000000000E+00 0.  1.
         22    1    4    4    0    0 -0.56641401031E+00 -0.71901804039E+01  0.73991179925E+02  0.74341873973E+02  0.00000000000E+00 0. -1.
         22    1    4    4    0    0  0.19557866648E+02 -0.87311732913E+01  0.21112008513E+03  0.21220375557E+03  0.00000000000E+00 0. -1.
<mgrwt>
<rscale>  0 0.91914443E+02</rscale>
<asrwt>0</asrwt>
<pdfrwt beam="1">  1        1 0.47864211E-01 0.91914443E+02</pdfrwt>
<pdfrwt beam="2">  1       -1 0.10444073E-02 0.91914443E+02</pdfrwt>
<totfact> 0.12626707E+05</totfact>
</mgrwt>
</event>
<event>
 7    1  0.3565607E-009  0.9242383E+02  0.7818608E-02  0.1297086E+00
         -1   -1    0    0    0  501 -0.00000000000E+00  0.00000000000E+00  0.69001530971E+02  0.69001531155E+02  0.50400000000E-02 0.  1.
          1   -1    0    0  501    0  0.00000000000E+00 -0.00000000000E+00 -0.30949183163E+02  0.30949183573E+02  0.50400000000E-02 0. -1.
         23    2    1    2    0    0 -0.17763568394E-14  0.00000000000E+00  0.38052347808E+02  0.99950714729E+02  0.92423829184E+02 0.  0.
    9000005    2    3    3    0    0  0.90751020693E+01  0.40818665072E+02  0.37470984098E+02  0.58131354624E+02  0.15055193301E+02 0.  0.
         22    1    3    3    0    0 -0.90751020693E+01 -0.40818665072E+02  0.58136371072E+00  0.41819360105E+02  0.00000000000E+00 0.  1.
         22    1    4    4    0    0  0.54347998037E+01  0.35224324862E+02  0.37100752701E+02  0.51446632172E+02  0.00000000000E+00 0.  1.
         22    1    4    4    0    0  0.36403022656E+01  0.55943402096E+01  0.37023139693E+00  0.66847224515E+01  0.00000000000E+00 0.  1.
<mgrwt>
<rscale>  0 0.92423829E+02</rscale>
<asrwt>0</asrwt>
<pdfrwt beam="2">  1        1 0.47614129E-02 0.92423829E+02</pdfrwt>
<pdfrwt beam="1">  1       -1 0.10615620E-01 0.92423829E+02</pdfrwt>
<totfact> 0.83785917E+04</totfact>
</mgrwt>
</event>
<event>
 7    1  0.3565607E-009  0.9178893E+02  0.7818608E-02  0.1298576E+00
         -1   -1    0    0    0  501 -0.00000000000E+00  0.00000000000E+00  0.19323369753E+02  0.19323370410E+02  0.50400000000E-02 0.  1.
          1   -1    0    0  501    0  0.00000000000E+00 -0.00000000000E+00 -0.10900282855E+03  0.10900282867E+03  0.50400000000E-02 0. -1.
         23    2    1    2    0    0  0.00000000000E+00  0.00000000000E+00 -0.89679458800E+02  0.12832619908E+03  0.91788932009E+02 0.  0.
    9000005    2    3    3    0    0 -0.17696992595E+02  0.32390814039E+02 -0.89996495617E+01  0.39604273944E+02  0.11187333970E+02 0.  0.
         22    1    3    3    0    0  0.17696992595E+02 -0.32390814039E+02 -0.80679809238E+02  0.88721925135E+02  0.00000000000E+00 0. -1.
         22    1    4    4    0    0 -0.93037271615E+01  0.66356925451E+01 -0.17334143161E+01  0.11558394345E+02  0.00000000000E+00 0.  1.
         22    1    4    4    0    0 -0.83932654331E+01  0.25755121494E+02 -0.72662352456E+01  0.28045879598E+02  0.00000000000E+00 0.  1.
<mgrwt>
<rscale>  0 0.91788932E+02</rscale>
<asrwt>0</asrwt>
<pdfrwt beam="2">  1        1 0.16769666E-01 0.91788932E+02</pdfrwt>
<pdfrwt beam="1">  1       -1 0.29728262E-02 0.91788932E+02</pdfrwt>
<totfact> 0.10406224E+05</totfact>
</mgrwt>
</event>
<event>
 7    1  0.3565607E-009  0.9028725E+02  0.7818608E-02  0.1302158E+00
          1   -1    0    0  501    0  0.00000000000E+00  0.00000000000E+00  0.12437981482E+03  0.12437981492E+03  0.50400000000E-02 0. -1.
         -1   -1    0    0    0  501 -0.00000000000E+00 -0.00000000000E+00 -0.16384868435E+02  0.16384869210E+02  0.50400000000E-02 0.  1.
         23    2    1    2    0    0  0.71054273576E-14  0.00000000000E+00  0.10799494639E+03  0.14076468413E+03  0.90287251892E+02 0.  0.
    9000005    2    3    3    0    0  0.42627096722E+02  0.70811948556E+01  0.35018986131E+02  0.55954876501E+02  0.61160542035E+01 0.  0.
         22    1    3    3    0    0 -0.42627096722E+02 -0.70811948556E+01  0.72975960255E+02  0.84809807632E+02  0.00000000000E+00 0. -1.
         22    1    4    4    0    0  0.38437078036E+02  0.59218913006E+01  0.28919312581E+02  0.48464465381E+02  0.00000000000E+00 0.  1.
         22    1    4    4    0    0  0.41900186865E+01  0.11593035550E+01  0.60996735506E+01  0.74904111202E+01  0.00000000000E+00 0.  1.
<mgrwt>
<rscale>  0 0.90287252E+02</rscale>
<asrwt>0</asrwt>
<pdfrwt beam="1">  1        1 0.19135356E-01 0.90287252E+02</pdfrwt>
<pdfrwt beam="2">  1       -1 0.25207490E-02 0.90287252E+02</pdfrwt>
<totfact> 0.11133161E+05</totfact>
</mgrwt>
</event>
<event>
 7    1  0.3565607E-009  0.9085737E+02  0.7818608E-02  0.1300789E+00
         -1   -1    0    0    0  501 -0.00000000000E+00  0.00000000000E+00  0.57579596241E+01  0.57579618299E+01  0.50400000000E-02 0.  1.
          1   -1    0    0  501    0  0.00000000000E+00 -0.00000000000E+00 -0.35841952784E+03  0.35841952788E+03  0.50400000000E-02 0. -1.
         23    2    1    2    0    0  0.00000000000E+00  0.00000000000E+00 -0.35266156822E+03  0.36417748971E+03  0.90857373458E+02 0.  0.
    9000005    2    3    3    0    0 -0.42393602901E+02  0.56449948270E+01 -0.23433304506E+03  0.23835728892E+03  0.85520547562E+01 0.  0.
         22    1    3    3    0    0  0.42393602901E+02 -0.56449948270E+01 -0.11832852316E+03  0.12582020079E+03  0.00000000000E+00 0.  1.
         22    1    4    4    0    0 -0.35677549650E+02  0.71622149890E+01 -0.18487400817E+03  0.18842129330E+03  0.00000000000E+00 0. -1.
         22    1    4    4    0    0 -0.67160532508E+01 -0.15172201619E+01 -0.49459036897E+02  0.49935995625E+02  0.00000000000E+00 0. -1.
<mgrwt>
<rscale>  0 0.90857373E+02</rscale>
<asrwt>0</asrwt>
<pdfrwt beam="2">  1        1 0.55141449E-01 0.90857373E+02</pdfrwt>
<pdfrwt beam="1">  1       -1 0.88584039E-03 0.90857373E+02</pdfrwt>
<totfact> 0.13363023E+05</totfact>
</mgrwt>
</event>
<event>
 7    1  0.3565607E-009  0.9086491E+02  0.7818608E-02  0.1300771E+00
          1   -1    0    0  501    0  0.00000000000E+00  0.00000000000E+00  0.15309641029E+03  0.15309641037E+03  0.50400000000E-02 0. -1.
         -1   -1    0    0    0  501 -0.00000000000E+00 -0.00000000000E+00 -0.13482404574E+02  0.13482405516E+02  0.50400000000E-02 0.  1.
         23    2    1    2    0    0  0.00000000000E+00  0.88817841970E-15  0.13961400571E+03  0.16657881588E+03  0.90864906926E+02 0.  0.
    9000005    2    3    3    0    0  0.35226957242E+02  0.70287892308E+01  0.12053731270E+03  0.12590618859E+03  0.57255723063E+01 0.  0.
         22    1    3    3    0    0 -0.35226957242E+02 -0.70287892308E+01  0.19076693012E+02  0.40672627293E+02  0.00000000000E+00 0.  1.
         22    1    4    4    0    0  0.77990263240E+01  0.40331808492E+01  0.28348591674E+02  0.29677163093E+02  0.00000000000E+00 0. -1.
         22    1    4    4    0    0  0.27427930918E+02  0.29956083816E+01  0.92188721025E+02  0.96229025498E+02  0.00000000000E+00 0. -1.
<mgrwt>
<rscale>  0 0.90864907E+02</rscale>
<asrwt>0</asrwt>
<pdfrwt beam="1">  1        1 0.23553294E-01 0.90864907E+02</pdfrwt>
<pdfrwt beam="2">  1       -1 0.20742161E-02 0.90864907E+02</pdfrwt>
<totfact> 0.11360034E+05</totfact>
</mgrwt>
</event>
<event>
 7    1  0.3565607E-009  0.9167798E+02  0.7818608E-02  0.1298838E+00
         -1   -1    0    0    0  501 -0.00000000000E+00  0.00000000000E+00  0.29974016855E+01  0.29974059228E+01  0.50400000000E-02 0.  1.
          1   -1    0    0  501    0  0.00000000000E+00 -0.00000000000E+00 -0.70101104071E+03  0.70101104073E+03  0.50400000000E-02 0. -1.
         23    2    1    2    0    0  0.00000000000E+00  0.00000000000E+00 -0.69801363903E+03  0.70400844666E+03  0.91677983681E+02 0.  0.
    9000005    2    3    3    0    0 -0.26796372800E+02 -0.70680223692E+00 -0.63227212935E+03  0.63301202942E+03  0.14752582141E+02 0.  0.
         22    1    3    3    0    0  0.26796372800E+02  0.70680223692E+00 -0.65741509682E+02  0.70996417233E+02  0.00000000000E+00 0.  1.
         22    1    4    4    0    0 -0.11468881605E+01 -0.44009640550E+01 -0.75089347633E+02  0.75226949725E+02  0.00000000000E+00 0.  1.
         22    1    4    4    0    0 -0.25649484640E+02  0.36941618181E+01 -0.55718278171E+03  0.55778507970E+03  0.00000000000E+00 0.  1.
<mgrwt>
<rscale>  0 0.91677984E+02</rscale>
<asrwt>0</asrwt>
<pdfrwt beam="2">  1        1 0.10784772E+00 0.91677984E+02</pdfrwt>
<pdfrwt beam="1">  1       -1 0.46113961E-03 0.91677984E+02</pdfrwt>
<totfact> 0.14012608E+05</totfact>
</mgrwt>
</event>
<event>
 7    1  0.3565607E-009  0.8916840E+02  0.7818608E-02  0.1304878E+00
         -1   -1    0    0    0  501 -0.00000000000E+00  0.00000000000E+00  0.32956255215E+02  0.32956255600E+02  0.50400000000E-02 0.  1.
          1   -1    0    0  501    0  0.00000000000E+00 -0.00000000000E+00 -0.60314830541E+02  0.60314830752E+02  0.50400000000E-02 0. -1.
         23    2    1    2    0    0  0.00000000000E+00  0.00000000000E+00 -0.27358575326E+02  0.93271086352E+02  0.89168401945E+02 0.  0.
    9000005    2    3    3    0    0 -0.37440598384E+02 -0.55561372091E+01  0.95575670047E+01  0.40398875951E+02  0.10394855606E+02 0.  0.
         22    1    3    3    0    0  0.37440598384E+02  0.55561372091E+01 -0.36916142331E+02  0.52872210401E+02  0.00000000000E+00 0. -1.
         22    1    4    4    0    0 -0.77611730517E+01 -0.44935040163E+01  0.52440473322E+01  0.10388812151E+02  0.00000000000E+00 0. -1.
         22    1    4    4    0    0 -0.29679425332E+02 -0.10626331928E+01  0.43135196724E+01  0.30010063801E+02  0.00000000000E+00 0. -1.
<mgrwt>
<rscale>  0 0.89168402E+02</rscale>
<asrwt>0</asrwt>
<pdfrwt beam="2">  1        1 0.92792048E-02 0.89168402E+02</pdfrwt>
<pdfrwt beam="1">  1       -1 0.50701932E-02 0.89168402E+02</pdfrwt>
<totfact> 0.10257738E+05</totfact>
</mgrwt>
</event>
<event>
 7    1  0.3565607E-009  0.8725546E+02  0.7818608E-02  0.1309637E+00
          1   -1    0    0  501    0  0.00000000000E+00  0.00000000000E+00  0.13455379774E+03  0.13455379783E+03  0.50400000000E-02 0. -1.
         -1   -1    0    0    0  501 -0.00000000000E+00 -0.00000000000E+00 -0.14145857642E+02  0.14145858540E+02  0.50400000000E-02 0.  1.
         23    2    1    2    0    0  0.00000000000E+00  0.00000000000E+00  0.12040794009E+03  0.14869965637E+03  0.87255462676E+02 0.  0.
    9000005    2    3    3    0    0 -0.17245905480E+02 -0.24462946376E+02  0.79281739957E+01  0.32305692683E+02  0.92165522611E+01 0.  0.
         22    1    3    3    0    0  0.17245905480E+02  0.24462946376E+02  0.11247976610E+03  0.11639396369E+03  0.00000000000E+00 0. -1.
         22    1    4    4    0    0 -0.12127951697E+02 -0.19209330925E+02  0.97922191096E+01  0.24738091318E+02  0.00000000000E+00 0.  1.
         22    1    4    4    0    0 -0.51179537830E+01 -0.52536154509E+01 -0.18640451140E+01  0.75676013649E+01  0.00000000000E+00 0.  1.
<mgrwt>
<rscale>  0 0.87255463E+02</rscale>
<asrwt>0</asrwt>
<pdfrwt beam="1">  1        1 0.20700584E-01 0.87255463E+02</pdfrwt>
<pdfrwt beam="2">  1       -1 0.21762859E-02 0.87255463E+02</pdfrwt>
<totfact> 0.12377154E+05</totfact>
</mgrwt>
</event>
<event>
 7    1  0.3565607E-009  0.9260483E+02  0.7818608E-02  0.1296664E+00
         -1   -1    0    0    0  501 -0.00000000000E+00  0.00000000000E+00  0.10120212222E+03  0.10120212235E+03  0.50400000000E-02 0.  1.
          1   -1    0    0  501    0  0.00000000000E+00 -0.00000000000E+00 -0.21184471152E+02  0.21184471752E+02  0.50400000000E-02 0. -1.
         23    2    1    2    0    0 -0.27755575616E-15  0.00000000000E+00  0.80017651068E+02  0.12238659410E+03  0.92604826723E+02 0.  0.
    9000005    2    3    3    0    0 -0.25846545800E+00  0.27305489766E+02  0.89128277012E+02  0.93600137545E+02  0.84545496449E+01 0.  0.
         22    1    3    3    0    0  0.25846545800E+00 -0.27305489766E+02 -0.91106259434E+01  0.28786456552E+02  0.00000000000E+00 0. -1.
         22    1    4    4    0    0  0.31466177655E+01  0.81333415190E+01  0.20871005180E+02  0.22619710538E+02  0.00000000000E+00 0. -1.
         22    1    4    4    0    0 -0.34050832235E+01  0.19172148247E+02  0.68257271832E+02  0.70980427007E+02  0.00000000000E+00 0. -1.
<mgrwt>
<rscale>  0 0.92604827E+02</rscale>
<asrwt>0</asrwt>
<pdfrwt beam="2">  1        1 0.32591495E-02 0.92604827E+02</pdfrwt>
<pdfrwt beam="1">  1       -1 0.15569557E-01 0.92604827E+02</pdfrwt>
<totfact> 0.77999712E+04</totfact>
</mgrwt>
</event>
<event>
 7    1  0.3565607E-009  0.8618370E+02  0.7818608E-02  0.1312366E+00
         -1   -1    0    0    0  501 -0.00000000000E+00  0.00000000000E+00  0.40106224040E+01  0.40106255708E+01  0.50400000000E-02 0.  1.
          1   -1    0    0  501    0  0.00000000000E+00 -0.00000000000E+00 -0.46299711386E+03  0.46299711388E+03  0.50400000000E-02 0. -1.
         23    2    1    2    0    0  0.00000000000E+00 -0.35527136788E-14 -0.45898649145E+03  0.46700773945E+03  0.86183695527E+02 0.  0.
    9000005    2    3    3    0    0 -0.25041038183E+01 -0.28475379704E+02 -0.40334042790E+03  0.40444894971E+03  0.88506699817E+01 0.  0.
         22    1    3    3    0    0  0.25041038183E+01  0.28475379704E+02 -0.55646063553E+02  0.62558789743E+02  0.00000000000E+00 0.  1.
         22    1    4    4    0    0  0.64492520781E+00 -0.14325461866E+02 -0.25469094557E+03  0.25509432088E+03  0.00000000000E+00 0.  1.
         22    1    4    4    0    0 -0.31490290261E+01 -0.14149917839E+02 -0.14864948232E+03  0.14935462883E+03  0.00000000000E+00 0.  1.
<mgrwt>
<rscale>  0 0.86183696E+02</rscale>
<asrwt>0</asrwt>
<pdfrwt beam="2">  1        1 0.71230283E-01 0.86183696E+02</pdfrwt>
<pdfrwt beam="1">  1       -1 0.61701944E-03 0.86183696E+02</pdfrwt>
<totfact> 0.16004269E+05</totfact>
</mgrwt>
</event>
<event>
 7    1  0.3565607E-009  0.9017928E+02  0.7818608E-02  0.1302418E+00
          1   -1    0    0  501    0  0.00000000000E+00  0.00000000000E+00  0.12177521509E+02  0.12177522552E+02  0.50400000000E-02 0. -1.
         -1   -1    0    0    0  501 -0.00000000000E+00 -0.00000000000E+00 -0.16695313372E+03  0.16695313380E+03  0.50400000000E-02 0.  1.
         23    2    1    2    0    0  0.00000000000E+00 -0.35527136788E-14 -0.15477561222E+03  0.17913065635E+03  0.90179276490E+02 0.  0.
    9000005    2    3    3    0    0  0.20449888160E+02 -0.16443421573E+02 -0.15019537201E+03  0.15249303936E+03  0.26254981938E+01 0.  0.
         22    1    3    3    0    0 -0.20449888160E+02  0.16443421573E+02 -0.45802402059E+01  0.26637616994E+02  0.00000000000E+00 0. -1.
         22    1    4    4    0    0  0.34563886179E+01 -0.28112218573E+01 -0.31711808881E+02  0.32023248010E+02  0.00000000000E+00 0.  1.
         22    1    4    4    0    0  0.16993499542E+02 -0.13632199715E+02 -0.11848356313E+03  0.12046979135E+03  0.00000000000E+00 0.  1.
<mgrwt>
<rscale>  0 0.90179276E+02</rscale>
<asrwt>0</asrwt>
<pdfrwt beam="1">  1        1 0.18734651E-02 0.90179276E+02</pdfrwt>
<pdfrwt beam="2">  1       -1 0.25685096E-01 0.90179276E+02</pdfrwt>
<totfact> 0.74982817E+04</totfact>
</mgrwt>
</event>
<event>
 7    1  0.3565607E-009  0.9745301E+02  0.7818608E-02  0.1285745E+00
         -1   -1    0    0    0  501 -0.00000000000E+00  0.00000000000E+00  0.31138697092E+02  0.31138697500E+02  0.50400000000E-02 0.  1.
          1   -1    0    0  501    0  0.00000000000E+00 -0.00000000000E+00 -0.76248287139E+02  0.76248287305E+02  0.50400000000E-02 0. -1.
         23    2    1    2    0    0 -0.44408920985E-15  0.00000000000E+00 -0.45109590046E+02  0.10738698481E+03  0.97453011197E+02 0.  0.
    9000005    2    3    3    0    0  0.21916995160E+01 -0.44197868006E+02 -0.44900276439E+02  0.63134313753E+02  0.34134536400E+01 0.  0.
         22    1    3    3    0    0 -0.21916995160E+01  0.44197868006E+02 -0.20931360783E+00  0.44252671052E+02  0.00000000000E+00 0.  1.
         22    1    4    4    0    0  0.28963271933E+01 -0.30075287472E+02 -0.31640036851E+02  0.43749326391E+02  0.00000000000E+00 0.  1.
         22    1    4    4    0    0 -0.70462767733E+00 -0.14122580534E+02 -0.13260239587E+02  0.19384987362E+02  0.00000000000E+00 0.  1.
<mgrwt>
<rscale>  0 0.97453011E+02</rscale>
<asrwt>0</asrwt>
<pdfrwt beam="2">  1        1 0.11730506E-01 0.97453011E+02</pdfrwt>
<pdfrwt beam="1">  1       -1 0.47905688E-02 0.97453011E+02</pdfrwt>
<totfact> 0.83178917E+04</totfact>
</mgrwt>
</event>
<event>
 7    1  0.3565607E-009  0.9275173E+02  0.7818608E-02  0.1296322E+00
         -1   -1    0    0    0  501 -0.00000000000E+00  0.00000000000E+00  0.56658570291E+01  0.56658592707E+01  0.50400000000E-02 0.  1.
          1   -1    0    0  501    0  0.00000000000E+00 -0.00000000000E+00 -0.37959312599E+03  0.37959312603E+03  0.50400000000E-02 0. -1.
         23    2    1    2    0    0  0.00000000000E+00  0.00000000000E+00 -0.37392726896E+03  0.38525898530E+03  0.92751729242E+02 0.  0.
    9000005    2    3    3    0    0 -0.24679503294E+02 -0.37615044473E+02 -0.20274170268E+03  0.20826048938E+03  0.15628946764E+02 0.  0.
         22    1    3    3    0    0  0.24679503294E+02  0.37615044473E+02 -0.17118556628E+03  0.17699849592E+03  0.00000000000E+00 0.  1.
         22    1    4    4    0    0 -0.70812282000E+01 -0.14000879901E+02 -0.10539584827E+03  0.10655727691E+03  0.00000000000E+00 0.  1.
         22    1    4    4    0    0 -0.17598275094E+02 -0.23614164572E+02 -0.97345854415E+02  0.10170321247E+03  0.00000000000E+00 0.  1.
<mgrwt>
<rscale>  0 0.92751729E+02</rscale>
<asrwt>0</asrwt>
<pdfrwt beam="2">  1        1 0.58398923E-01 0.92751729E+02</pdfrwt>
<pdfrwt beam="1">  1       -1 0.87167079E-03 0.92751729E+02</pdfrwt>
<totfact> 0.12775827E+05</totfact>
</mgrwt>
</event>
<event>
 7    1  0.3565607E-009  0.9268034E+02  0.7818608E-02  0.1296488E+00
         -1   -1    0    0    0  501 -0.00000000000E+00  0.00000000000E+00  0.45016486718E+02  0.45016487000E+02  0.50400000000E-02 0.  1.
          1   -1    0    0  501    0  0.00000000000E+00 -0.00000000000E+00 -0.47702773876E+02  0.47702774142E+02  0.50400000000E-02 0. -1.
         23    2    1    2    0    0  0.00000000000E+00  0.00000000000E+00 -0.26862871582E+01  0.92719261142E+02  0.92680339059E+02 0.  0.
    9000005    2    3    3    0    0  0.28174943476E+02  0.70602960724E+01 -0.35744446329E+02  0.48713385304E+02  0.15863582316E+02 0.  0.
         22    1    3    3    0    0 -0.28174943476E+02 -0.70602960724E+01  0.33058159171E+02  0.44005875838E+02  0.00000000000E+00 0.  1.
         22    1    4    4    0    0  0.27815678257E+02  0.10397499842E+02 -0.32835418264E+02  0.44271713909E+02  0.00000000000E+00 0. -1.
         22    1    4    4    0    0  0.35926521899E+00 -0.33372037698E+01 -0.29090280646E+01  0.44416713948E+01  0.00000000000E+00 0. -1.
<mgrwt>
<rscale>  0 0.92680339E+02</rscale>
<asrwt>0</asrwt>
<pdfrwt beam="2">  1        1 0.73388883E-02 0.92680339E+02</pdfrwt>
<pdfrwt beam="1">  1       -1 0.69256134E-02 0.92680339E+02</pdfrwt>
<totfact> 0.88925780E+04</totfact>
</mgrwt>
</event>
<event>
 7    1  0.3565607E-009  0.9205464E+02  0.7818608E-02  0.1297951E+00
         -1   -1    0    0    0  501 -0.00000000000E+00  0.00000000000E+00  0.32322573157E+03  0.32322573161E+03  0.50400000000E-02 0.  1.
          1   -1    0    0  501    0  0.00000000000E+00 -0.00000000000E+00 -0.65542852948E+01  0.65542872326E+01  0.50400000000E-02 0. -1.
         23    2    1    2    0    0 -0.35527136788E-14  0.00000000000E+00  0.31667144627E+03  0.32978001884E+03  0.92054635631E+02 0.  0.
    9000005    2    3    3    0    0 -0.26968267515E+02 -0.36743926559E+02  0.18112502438E+03  0.18677569695E+03  0.12177528011E+01 0.  0.
         22    1    3    3    0    0  0.26968267515E+02  0.36743926559E+02  0.13554642189E+03  0.14300432189E+03  0.00000000000E+00 0. -1.
         22    1    4    4    0    0 -0.21412177526E+02 -0.28341160004E+02  0.14156239878E+03  0.14595072952E+03  0.00000000000E+00 0.  1.
         22    1    4    4    0    0 -0.55560899897E+01 -0.84027665551E+01  0.39562625596E+02  0.40824967431E+02  0.00000000000E+00 0.  1.
<mgrwt>
<rscale>  0 0.92054636E+02</rscale>
<asrwt>0</asrwt>
<pdfrwt beam="2">  1        1 0.10083520E-02 0.92054636E+02</pdfrwt>
<pdfrwt beam="1">  1       -1 0.49727021E-01 0.92054636E+02</pdfrwt>
<totfact> 0.57322444E+04</totfact>
</mgrwt>
</event>
<event>
 7    1  0.3565607E-009  0.9249254E+02  0.7818608E-02  0.1296925E+00
         -1   -1    0    0    0  501 -0.00000000000E+00  0.00000000000E+00  0.76509440328E+01  0.76509456928E+01  0.50400000000E-02 0.  1.
          1   -1    0    0  501    0  0.00000000000E+00 -0.00000000000E+00 -0.27953640169E+03  0.27953640174E+03  0.50400000000E-02 0. -1.
         23    2    1    2    0    0  0.00000000000E+00  0.00000000000E+00 -0.27188545766E+03  0.28718734743E+03  0.92492542605E+02 0.  0.
    9000005    2    3    3    0    0 -0.11390735594E+02  0.43243411251E+02 -0.15675974514E+03  0.16368159389E+03  0.14775148346E+02 0.  0.
         22    1    3    3    0    0  0.11390735594E+02 -0.43243411251E+02 -0.11512571252E+03  0.12350575354E+03  0.00000000000E+00 0. -1.
         22    1    4    4    0    0 -0.60861060953E+01  0.10448739924E+02 -0.64483625312E+02  0.65607581778E+02  0.00000000000E+00 0.  1.
         22    1    4    4    0    0 -0.53046294990E+01  0.32794671327E+02 -0.92276119827E+02  0.98074012113E+02  0.00000000000E+00 0.  1.
<mgrwt>
<rscale>  0 0.92492543E+02</rscale>
<asrwt>0</asrwt>
<pdfrwt beam="2">  1        1 0.43005593E-01 0.92492543E+02</pdfrwt>
<pdfrwt beam="1">  1       -1 0.11770687E-02 0.92492543E+02</pdfrwt>
<totfact> 0.12164742E+05</totfact>
</mgrwt>
</event>
<event>
 7    1  0.3565607E-009  0.9489766E+02  0.7818608E-02  0.1291407E+00
         -1   -1    0    0    0  501 -0.00000000000E+00  0.00000000000E+00  0.95040875598E+01  0.95040888961E+01  0.50400000000E-02 0.  1.
          1   -1    0    0  501    0  0.00000000000E+00 -0.00000000000E+00 -0.23688662959E+03  0.23688662964E+03  0.50400000000E-02 0. -1.
         23    2    1    2    0    0  0.00000000000E+00  0.00000000000E+00 -0.22738254203E+03  0.24639071854E+03  0.94897659414E+02 0.  0.
    9000005    2    3    3    0    0 -0.22217163925E+02 -0.28474255600E+02 -0.36765045010E+02  0.52381915195E+02  0.93707470402E+01 0.  0.
         22    1    3    3    0    0  0.22217163925E+02  0.28474255600E+02 -0.19061749702E+03  0.19400880334E+03  0.00000000000E+00 0. -1.
         22    1    4    4    0    0 -0.14881016673E+02 -0.12729134761E+02 -0.15842334224E+02  0.25188391823E+02  0.00000000000E+00 0.  1.
         22    1    4    4    0    0 -0.73361472518E+01 -0.15745120839E+02 -0.20922710786E+02  0.27193523372E+02  0.00000000000E+00 0.  1.
<mgrwt>
<rscale>  0 0.94897659E+02</rscale>
<asrwt>0</asrwt>
<pdfrwt beam="2">  1        1 0.36444093E-01 0.94897659E+02</pdfrwt>
<pdfrwt beam="1">  1       -1 0.14621676E-02 0.94897659E+02</pdfrwt>
<totfact> 0.10993175E+05</totfact>
</mgrwt>
</event>
<event>
 7    1  0.3565607E-009  0.9328550E+02  0.7818608E-02  0.1295085E+00
         -1   -1    0    0    0  501 -0.00000000000E+00  0.00000000000E+00  0.38092635563E+01  0.38092668904E+01  0.50400000000E-02 0.  1.
          1   -1    0    0  501    0  0.00000000000E+00 -0.00000000000E+00 -0.57111963315E+03  0.57111963317E+03  0.50400000000E-02 0. -1.
         23    2    1    2    0    0  0.00000000000E+00  0.00000000000E+00 -0.56731036959E+03  0.57492890006E+03  0.93285500903E+02 0.  0.
    9000005    2    3    3    0    0  0.86523557789E+01 -0.14692699061E+02 -0.55055622576E+03  0.55102408880E+03  0.14988330119E+02 0.  0.
         22    1    3    3    0    0 -0.86523557789E+01  0.14692699061E+02 -0.16754143829E+02  0.23904811266E+02  0.00000000000E+00 0.  1.
         22    1    4    4    0    0  0.35030985246E+01 -0.15619540803E+02 -0.31188647227E+03  0.31229699540E+03  0.00000000000E+00 0. -1.
         22    1    4    4    0    0  0.51492572543E+01  0.92684174187E+00 -0.23866975350E+03  0.23872709339E+03  0.00000000000E+00 0. -1.
<mgrwt>
<rscale>  0 0.93285501E+02</rscale>
<asrwt>0</asrwt>
<pdfrwt beam="2">  1        1 0.87864491E-01 0.93285501E+02</pdfrwt>
<pdfrwt beam="1">  1       -1 0.58604126E-03 0.93285501E+02</pdfrwt>
<totfact> 0.13280766E+05</totfact>
</mgrwt>
</event>
<event>
 7    1  0.3565607E-009  0.8879264E+02  0.7818608E-02  0.1305802E+00
          1   -1    0    0  501    0  0.00000000000E+00  0.00000000000E+00  0.22297358623E+03  0.22297358628E+03  0.50400000000E-02 0. -1.
         -1   -1    0    0    0  501 -0.00000000000E+00 -0.00000000000E+00 -0.88397597202E+01  0.88397611570E+01  0.50400000000E-02 0.  1.
         23    2    1    2    0    0 -0.35527136788E-14  0.00000000000E+00  0.21413382651E+03  0.23181334744E+03  0.88792637067E+02 0.  0.
    9000005    2    3    3    0    0  0.25311065330E+02 -0.35167693321E+02  0.90837899498E+02  0.10112554274E+03  0.98709030385E+01 0.  0.
         22    1    3    3    0    0 -0.25311065330E+02  0.35167693321E+02  0.12329592701E+03  0.13068780470E+03  0.00000000000E+00 0. -1.
         22    1    4    4    0    0  0.43036979717E+01 -0.20378673352E+01  0.15072229912E+02  0.15806544025E+02  0.00000000000E+00 0. -1.
         22    1    4    4    0    0  0.21007367358E+02 -0.33129825986E+02  0.75765669586E+02  0.85318998710E+02  0.00000000000E+00 0. -1.
<mgrwt>
<rscale>  0 0.88792637E+02</rscale>
<asrwt>0</asrwt>
<pdfrwt beam="1">  1        1 0.34303627E-01 0.88792637E+02</pdfrwt>
<pdfrwt beam="2">  1       -1 0.13599632E-02 0.88792637E+02</pdfrwt>
<totfact> 0.12980990E+05</totfact>
</mgrwt>
</event>
<event>
 7    1  0.3565607E-009  0.9035494E+02  0.7818608E-02  0.1301994E+00
         -1   -1    0    0    0  501 -0.00000000000E+00  0.00000000000E+00  0.22221393022E+03  0.22221393028E+03  0.50400000000E-02 0.  1.
          1   -1    0    0  501    0  0.00000000000E+00 -0.00000000000E+00 -0.91848589448E+01  0.91848603276E+01  0.50400000000E-02 0. -1.
         23    2    1    2    0    0  0.00000000000E+00  0.00000000000E+00  0.21302907128E+03  0.23139879061E+03  0.90354939461E+02 0.  0.
    9000005    2    3    3    0    0  0.25478065620E+02  0.92351900894E+01  0.19878637284E+03  0.20078384291E+03  0.79817906596E+01 0.  0.
         22    1    3    3    0    0 -0.25478065620E+02 -0.92351900894E+01  0.14242698433E+02  0.30614947695E+02  0.00000000000E+00 0. -1.
         22    1    4    4    0    0  0.23595105505E+02  0.10657779884E+02  0.18258457208E+03  0.18441107135E+03  0.00000000000E+00 0.  1.
         22    1    4    4    0    0  0.18829601147E+01 -0.14225897947E+01  0.16201800763E+02  0.16372771558E+02  0.00000000000E+00 0.  1.
<mgrwt>
<rscale>  0 0.90354939E+02</rscale>
<asrwt>0</asrwt>
<pdfrwt beam="2">  1        1 0.14130553E-02 0.90354939E+02</pdfrwt>
<pdfrwt beam="1">  1       -1 0.34186759E-01 0.90354939E+02</pdfrwt>
<totfact> 0.68890151E+04</totfact>
</mgrwt>
</event>
<event>
 7    1  0.3565607E-009  0.9140132E+02  0.7818608E-02  0.1299493E+00
         -1   -1    0    0    0  501 -0.00000000000E+00  0.00000000000E+00  0.20416545886E+01  0.20416608094E+01  0.50400000000E-02 0.  1.
          1   -1    0    0  501    0  0.00000000000E+00 -0.00000000000E+00 -0.10229679665E+04  0.10229679665E+04  0.50400000000E-02 0. -1.
         23    2    1    2    0    0  0.17763568394E-14  0.00000000000E+00 -0.10209263119E+04  0.10250096273E+04  0.91401322471E+02 0.  0.
    9000005    2    3    3    0    0  0.11218325954E+02  0.20323061310E+02 -0.95074589399E+03  0.95108961164E+03  0.10715259255E+02 0.  0.
         22    1    3    3    0    0 -0.11218325954E+02 -0.20323061310E+02 -0.70180417935E+02  0.73920015691E+02  0.00000000000E+00 0.  1.
         22    1    4    4    0    0  0.85335512055E+01  0.71734211868E+01 -0.30368835378E+03  0.30389290168E+03  0.00000000000E+00 0. -1.
         22    1    4    4    0    0  0.26847747483E+01  0.13149640123E+02 -0.64705754021E+03  0.64719670997E+03  0.00000000000E+00 0. -1.
<mgrwt>
<rscale>  0 0.91401322E+02</rscale>
<asrwt>0</asrwt>
<pdfrwt beam="2">  1        1 0.15737928E+00 0.91401322E+02</pdfrwt>
<pdfrwt beam="1">  1       -1 0.31410200E-03 0.91401322E+02</pdfrwt>
<totfact> 0.13428673E+05</totfact>
</mgrwt>
</event>
<event>
 7    1  0.3565607E-009  0.8909462E+02  0.7818608E-02  0.1305059E+00
         -1   -1    0    0    0  501 -0.00000000000E+00  0.00000000000E+00  0.11082057833E+03  0.11082057844E+03  0.50400000000E-02 0.  1.
          1   -1    0    0  501    0  0.00000000000E+00 -0.00000000000E+00 -0.17906987870E+02  0.17906988579E+02  0.50400000000E-02 0. -1.
         23    2    1    2    0    0 -0.17763568394E-14 -0.71054273576E-14  0.92913590458E+02  0.12872756702E+03  0.89094619476E+02 0.  0.
    9000005    2    3    3    0    0 -0.12053792596E+02 -0.32330387027E+02  0.67012938255E+01  0.35866876028E+02  0.71398610447E+01 0.  0.
         22    1    3    3    0    0  0.12053792596E+02  0.32330387027E+02  0.86212296632E+02  0.92860690994E+02  0.00000000000E+00 0.  1.
         22    1    4    4    0    0  0.25814796069E+00 -0.58348260717E+01  0.24873809316E+01  0.63481414253E+01  0.00000000000E+00 0.  1.
         22    1    4    4    0    0 -0.12311940557E+02 -0.26495560956E+02  0.42139128939E+01  0.29518734602E+02  0.00000000000E+00 0.  1.
<mgrwt>
<rscale>  0 0.89094619E+02</rscale>
<asrwt>0</asrwt>
<pdfrwt beam="2">  1        1 0.27549213E-02 0.89094619E+02</pdfrwt>
<pdfrwt beam="1">  1       -1 0.17049320E-01 0.89094619E+02</pdfrwt>
<totfact> 0.84686986E+04</totfact>
</mgrwt>
</event>
<event>
 6    1  0.6048116E-009  0.5505335E+03  0.7818608E-02  0.1001371E+00
          1   -1    0    0  501    0  0.00000000000E+00  0.00000000000E+00  0.15877696835E+03  0.15877696843E+03  0.50400000000E-02 0. -1.
         -1   -1    0    0    0  501 -0.00000000000E+00 -0.00000000000E+00 -0.47722143664E+03  0.47722143667E+03  0.50400000000E-02 0.  1.
    9000005    2    1    2    0    0 -0.15284474542E+03  0.21290570798E+02  0.10372107293E+03  0.18651142108E+03  0.14616587061E+02 0.  0.
         22    1    1    2    0    0  0.15284474542E+03 -0.21290570798E+02 -0.42216554122E+03  0.44948698402E+03  0.00000000000E+00 0.  1.
         22    1    3    3    0    0 -0.67372398439E+01 -0.73061973278E+00  0.18008789431E+01  0.70119448711E+01  0.00000000000E+00 0.  1.
         22    1    3    3    0    0 -0.14610750558E+03  0.22021190531E+02  0.10192019399E+03  0.17949947621E+03  0.00000000000E+00 0.  1.
<mgrwt>
<rscale>  0 0.55053346E+03</rscale>
<asrwt>0</asrwt>
<pdfrwt beam="1">  1        1 0.24427226E-01 0.55053346E+03</pdfrwt>
<pdfrwt beam="2">  1       -1 0.73418682E-01 0.55053346E+03</pdfrwt>
<totfact> 0.38171505E+02</totfact>
</mgrwt>
</event>
<event>
 7    1  0.3565607E-009  0.9088761E+02  0.7818608E-02  0.1300716E+00
         -1   -1    0    0    0  501 -0.00000000000E+00  0.00000000000E+00  0.44833565555E+02  0.44833565838E+02  0.50400000000E-02 0.  1.
          1   -1    0    0  501    0  0.00000000000E+00 -0.00000000000E+00 -0.46062354745E+02  0.46062355021E+02  0.50400000000E-02 0. -1.
         23    2    1    2    0    0  0.00000000000E+00  0.00000000000E+00 -0.12287891903E+01  0.90895920860E+02  0.90887614701E+02 0.  0.
    9000005    2    3    3    0    0 -0.16040638193E+02  0.12944059690E+02  0.39658700880E+02  0.45106865408E+02  0.60799668225E+01 0.  0.
         22    1    3    3    0    0  0.16040638193E+02 -0.12944059690E+02 -0.40887490070E+02  0.45789055452E+02  0.00000000000E+00 0. -1.
         22    1    4    4    0    0 -0.10815084961E+02  0.50718315877E+01  0.20008523761E+02  0.23303016145E+02  0.00000000000E+00 0. -1.
         22    1    4    4    0    0 -0.52255532321E+01  0.78722281028E+01  0.19650177119E+02  0.21803849263E+02  0.00000000000E+00 0. -1.
<mgrwt>
<rscale>  0 0.90887615E+02</rscale>
<asrwt>0</asrwt>
<pdfrwt beam="2">  1        1 0.70865162E-02 0.90887615E+02</pdfrwt>
<pdfrwt beam="1">  1       -1 0.68974717E-02 0.90887615E+02</pdfrwt>
<totfact> 0.93445209E+04</totfact>
</mgrwt>
</event>
<event>
 7    1  0.3565607E-009  0.9123741E+02  0.7818608E-02  0.1299883E+00
          1   -1    0    0  501    0  0.00000000000E+00  0.00000000000E+00  0.70709412661E+02  0.70709412841E+02  0.50400000000E-02 0. -1.
         -1   -1    0    0    0  501 -0.00000000000E+00 -0.00000000000E+00 -0.29431246509E+02  0.29431246940E+02  0.50400000000E-02 0.  1.
         23    2    1    2    0    0  0.00000000000E+00 -0.35527136788E-14  0.41278166153E+02  0.10014065978E+03  0.91237408668E+02 0.  0.
    9000005    2    3    3    0    0  0.17186235892E+02 -0.20724558039E+02  0.59991429953E+02  0.67352548337E+02  0.14578068792E+02 0.  0.
         22    1    3    3    0    0 -0.17186235892E+02  0.20724558039E+02 -0.18713263800E+02  0.32788111444E+02  0.00000000000E+00 0.  1.
         22    1    4    4    0    0  0.16612888890E+02 -0.92391555186E+01  0.40066407519E+02  0.44347120351E+02  0.00000000000E+00 0.  1.
         22    1    4    4    0    0  0.57334700200E+00 -0.11485402520E+02  0.19925022434E+02  0.23005427986E+02  0.00000000000E+00 0.  1.
<mgrwt>
<rscale>  0 0.91237409E+02</rscale>
<asrwt>0</asrwt>
<pdfrwt beam="1">  1        1 0.10878371E-01 0.91237409E+02</pdfrwt>
<pdfrwt beam="2">  1       -1 0.45278841E-02 0.91237409E+02</pdfrwt>
<totfact> 0.98639820E+04</totfact>
</mgrwt>
</event>
<event>
 7    1  0.3565607E-009  0.9169725E+02  0.7818608E-02  0.1298793E+00
         -1   -1    0    0    0  501 -0.00000000000E+00  0.00000000000E+00  0.33847604964E+02  0.33847605339E+02  0.50400000000E-02 0.  1.
          1   -1    0    0  501    0  0.00000000000E+00 -0.00000000000E+00 -0.62104728312E+02  0.62104728517E+02  0.50400000000E-02 0. -1.
         23    2    1    2    0    0  0.22204460493E-15  0.00000000000E+00 -0.28257123348E+02  0.95952333856E+02  0.91697248336E+02 0.  0.
    9000005    2    3    3    0    0  0.17101138839E+01 -0.16633933345E+02 -0.58474017953E+02  0.61417236527E+02  0.85588515011E+01 0.  0.
         22    1    3    3    0    0 -0.17101138839E+01  0.16633933345E+02  0.30216894604E+02  0.34535097329E+02  0.00000000000E+00 0.  1.
         22    1    4    4    0    0  0.22044574263E+01 -0.17225825492E+02 -0.57920570708E+02  0.60468018056E+02  0.00000000000E+00 0.  1.
         22    1    4    4    0    0 -0.49434354240E+00  0.59189214778E+00 -0.55344724427E+00  0.94921847048E+00  0.00000000000E+00 0.  1.
<mgrwt>
<rscale>  0 0.91697248E+02</rscale>
<asrwt>0</asrwt>
<pdfrwt beam="2">  1        1 0.95545736E-02 0.91697248E+02</pdfrwt>
<pdfrwt beam="1">  1       -1 0.52073239E-02 0.91697248E+02</pdfrwt>
<totfact> 0.95358822E+04</totfact>
</mgrwt>
</event>
<event>
 7    1  0.3611924E-009  0.9073634E+02  0.7818608E-02  0.1301078E+00
          1   -1    0    0  501    0  0.00000000000E+00  0.00000000000E+00  0.55517707578E+02  0.55517707806E+02  0.50400000000E-02 0. -1.
         -1   -1    0    0    0  501 -0.00000000000E+00 -0.00000000000E+00 -0.37074128434E+02  0.37074128777E+02  0.50400000000E-02 0.  1.
         23    2    1    2    0    0 -0.17763568394E-14 -0.44408920985E-15  0.18443579144E+02  0.92591836583E+02  0.90736335556E+02 0.  0.
    9000005    2    3    3    0    0  0.15747059194E+02 -0.24342923333E+01 -0.32702923314E+02  0.39020758882E+02  0.14115338395E+02 0.  0.
         22    1    3    3    0    0 -0.15747059194E+02  0.24342923333E+01  0.51146502458E+02  0.53571077701E+02  0.00000000000E+00 0. -1.
         22    1    4    4    0    0  0.86794444771E+01  0.18812265427E+01 -0.51848713726E+01  0.10283708518E+02  0.00000000000E+00 0.  1.
         22    1    4    4    0    0  0.70676147172E+01 -0.43155188760E+01 -0.27518051941E+02  0.28737050364E+02  0.00000000000E+00 0.  1.
<mgrwt>
<rscale>  0 0.90736336E+02</rscale>
<asrwt>0</asrwt>
<pdfrwt beam="1">  1        1 0.85411858E-02 0.90736336E+02</pdfrwt>
<pdfrwt beam="2">  1       -1 0.57037121E-02 0.90736336E+02</pdfrwt>
<totfact> 0.96540510E+04</totfact>
</mgrwt>
</event>
<event>
 7    1  0.3565607E-009  0.1004537E+03  0.7818608E-02  0.1279345E+00
          1   -1    0    0  501    0  0.00000000000E+00  0.00000000000E+00  0.51403852337E+03  0.51403852339E+03  0.50400000000E-02 0. -1.
         -1   -1    0    0    0  501 -0.00000000000E+00 -0.00000000000E+00 -0.49076764933E+01  0.49076790812E+01  0.50400000000E-02 0.  1.
         23    2    1    2    0    0  0.00000000000E+00  0.00000000000E+00  0.50913084688E+03  0.51894620248E+03  0.10045367999E+03 0.  0.
    9000005    2    3    3    0    0 -0.36666013726E+02 -0.29665070029E+01  0.43117158510E+03  0.43274386363E+03  0.22625167287E+01 0.  0.
         22    1    3    3    0    0  0.36666013726E+02  0.29665070029E+01  0.77959261773E+02  0.86202338846E+02  0.00000000000E+00 0.  1.
         22    1    4    4    0    0 -0.33188732506E+02 -0.30081476211E+01  0.39673294478E+03  0.39813009230E+03  0.00000000000E+00 0. -1.
         22    1    4    4    0    0 -0.34772812203E+01  0.41640618243E-01  0.34438640321E+02  0.34613771331E+02  0.00000000000E+00 0. -1.
<mgrwt>
<rscale>  0 0.10045368E+03</rscale>
<asrwt>0</asrwt>
<pdfrwt beam="1">  1        1 0.79082809E-01 0.10045368E+03</pdfrwt>
<pdfrwt beam="2">  1       -1 0.75502774E-03 0.10045368E+03</pdfrwt>
<totfact> 0.10793665E+05</totfact>
</mgrwt>
</event>
<event>
 7    1  0.3565607E-009  0.8849010E+02  0.7818608E-02  0.1306550E+00
          1   -1    0    0  501    0  0.00000000000E+00  0.00000000000E+00  0.20788186000E+03  0.20788186006E+03  0.50400000000E-02 0. -1.
         -1   -1    0    0    0  501 -0.00000000000E+00 -0.00000000000E+00 -0.94170041031E+01  0.94170054518E+01  0.50400000000E-02 0.  1.
         23    2    1    2    0    0 -0.88817841970E-15  0.00000000000E+00  0.19846485590E+03  0.21729886552E+03  0.88490100729E+02 0.  0.
    9000005    2    3    3    0    0  0.62736409020E+01 -0.16290890764E+02  0.19881913549E+03  0.19983813225E+03  0.10073667254E+02 0.  0.
         22    1    3    3    0    0 -0.62736409020E+01  0.16290890764E+02 -0.35427959306E+00  0.17460733263E+02  0.00000000000E+00 0.  1.
         22    1    4    4    0    0  0.70928468079E+01 -0.48225787916E+01  0.93894270208E+02  0.94285204141E+02  0.00000000000E+00 0.  1.
         22    1    4    4    0    0 -0.81920590587E+00 -0.11468311973E+02  0.10492486529E+03  0.10555292811E+03  0.00000000000E+00 0.  1.
<mgrwt>
<rscale>  0 0.88490101E+02</rscale>
<asrwt>0</asrwt>
<pdfrwt beam="1">  1        1 0.31981826E-01 0.88490101E+02</pdfrwt>
<pdfrwt beam="2">  1       -1 0.14487699E-02 0.88490101E+02</pdfrwt>
<totfact> 0.12923151E+05</totfact>
</mgrwt>
</event>
<event>
 7    1  0.3565607E-009  0.9122456E+02  0.7818608E-02  0.1299913E+00
         -1   -1    0    0    0  501 -0.00000000000E+00  0.00000000000E+00  0.47787636926E+01  0.47787663504E+01  0.50400000000E-02 0.  1.
          1   -1    0    0  501    0  0.00000000000E+00 -0.00000000000E+00 -0.43535939832E+03  0.43535939835E+03  0.50400000000E-02 0. -1.
         23    2    1    2    0    0  0.00000000000E+00  0.00000000000E+00 -0.43058063463E+03  0.44013816470E+03  0.91224564175E+02 0.  0.
    9000005    2    3    3    0    0  0.32862742350E+02  0.11192820753E+02 -0.35583245762E+03  0.35772136400E+03  0.11941411007E+02 0.  0.
         22    1    3    3    0    0 -0.32862742350E+02 -0.11192820753E+02 -0.74748177007E+02  0.82416800696E+02  0.00000000000E+00 0.  1.
         22    1    4    4    0    0  0.23186925713E+02  0.45028689982E+01 -0.27843535772E+03  0.27943542686E+03  0.00000000000E+00 0.  1.
         22    1    4    4    0    0  0.96758166371E+01  0.66899517549E+01 -0.77397099899E+02  0.78285937146E+02  0.00000000000E+00 0.  1.
<mgrwt>
<rscale>  0 0.91224564E+02</rscale>
<asrwt>0</asrwt>
<pdfrwt beam="2">  1        1 0.66978338E-01 0.91224564E+02</pdfrwt>
<pdfrwt beam="1">  1       -1 0.73519496E-03 0.91224564E+02</pdfrwt>
<totfact> 0.13650554E+05</totfact>
</mgrwt>
</event>
<event>
 7    1  0.3565607E-009  0.9374507E+02  0.7818608E-02  0.1294028E+00
          1   -1    0    0  501    0  0.00000000000E+00  0.00000000000E+00  0.13352721128E+02  0.13352722079E+02  0.50400000000E-02 0. -1.
         -1   -1    0    0    0  501 -0.00000000000E+00 -0.00000000000E+00 -0.16453834359E+03  0.16453834367E+03  0.50400000000E-02 0.  1.
         23    2    1    2    0    0  0.00000000000E+00  0.00000000000E+00 -0.15118562246E+03  0.17789106575E+03  0.93745073646E+02 0.  0.
    9000005    2    3    3    0    0 -0.29769452469E+02  0.15756377307E+02 -0.13684701703E+03  0.14128397174E+03  0.99785206277E+01 0.  0.
         22    1    3    3    0    0  0.29769452469E+02 -0.15756377307E+02 -0.14338605435E+02  0.36607094011E+02  0.00000000000E+00 0. -1.
         22    1    4    4    0    0 -0.17801851321E+02  0.61838752604E+01 -0.58784171629E+02  0.61731070441E+02  0.00000000000E+00 0. -1.
         22    1    4    4    0    0 -0.11967601148E+02  0.95725020462E+01 -0.78062845399E+02  0.79552901295E+02  0.00000000000E+00 0. -1.
<mgrwt>
<rscale>  0 0.93745074E+02</rscale>
<asrwt>0</asrwt>
<pdfrwt beam="1">  1        1 0.20542650E-02 0.93745074E+02</pdfrwt>
<pdfrwt beam="2">  1       -1 0.25313590E-01 0.93745074E+02</pdfrwt>
<totfact> 0.68035420E+04</totfact>
</mgrwt>
</event>
<event>
 7    1  0.3565607E-009  0.9144926E+02  0.7818608E-02  0.1299380E+00
         -1   -1    0    0    0  501 -0.00000000000E+00  0.00000000000E+00  0.14319045130E+03  0.14319045139E+03  0.50400000000E-02 0.  1.
          1   -1    0    0  501    0  0.00000000000E+00 -0.00000000000E+00 -0.14601125013E+02  0.14601125882E+02  0.50400000000E-02 0. -1.
         23    2    1    2    0    0  0.00000000000E+00  0.00000000000E+00  0.12858932628E+03  0.15779157727E+03  0.91449259278E+02 0.  0.
    9000005    2    3    3    0    0 -0.34560671490E+02 -0.29233353361E+02  0.61295298313E+02  0.76689695889E+02  0.86698845265E+01 0.  0.
         22    1    3    3    0    0  0.34560671490E+02  0.29233353361E+02  0.67294027971E+02  0.81101881379E+02  0.00000000000E+00 0. -1.
         22    1    4    4    0    0 -0.18212213321E+02 -0.20884502535E+02  0.38025633941E+02  0.47050993579E+02  0.00000000000E+00 0. -1.
         22    1    4    4    0    0 -0.16348458169E+02 -0.83488508261E+01  0.23269664372E+02  0.29638702310E+02  0.00000000000E+00 0. -1.
<mgrwt>
<rscale>  0 0.91449259E+02</rscale>
<asrwt>0</asrwt>
<pdfrwt beam="2">  1        1 0.22463270E-02 0.91449259E+02</pdfrwt>
<pdfrwt beam="1">  1       -1 0.22029300E-01 0.91449259E+02</pdfrwt>
<totfact> 0.75011241E+04</totfact>
</mgrwt>
</event>
<event>
 7    1  0.3565607E-009  0.9397814E+02  0.7818608E-02  0.1293494E+00
          1   -1    0    0  501    0  0.00000000000E+00  0.00000000000E+00  0.23654194907E+02  0.23654195444E+02  0.50400000000E-02 0. -1.
         -1   -1    0    0    0  501 -0.00000000000E+00 -0.00000000000E+00 -0.93343815281E+02  0.93343815417E+02  0.50400000000E-02 0.  1.
         23    2    1    2    0    0  0.00000000000E+00 -0.88817841970E-15 -0.69689620373E+02  0.11699801086E+03  0.93978142978E+02 0.  0.
    9000005    2    3    3    0    0  0.37251659914E+02 -0.73710235718E+01 -0.68512276719E+02  0.79005849920E+02  0.10294372516E+02 0.  0.
         22    1    3    3    0    0 -0.37251659914E+02  0.73710235718E+01 -0.11773436539E+01  0.37992160941E+02  0.00000000000E+00 0. -1.
         22    1    4    4    0    0  0.15222419384E+02 -0.74698372384E+01 -0.24602310195E+02  0.29879661765E+02  0.00000000000E+00 0. -1.
         22    1    4    4    0    0  0.22029240530E+02  0.98813666579E-01 -0.43909966524E+02  0.49126188155E+02  0.00000000000E+00 0. -1.
<mgrwt>
<rscale>  0 0.93978143E+02</rscale>
<asrwt>0</asrwt>
<pdfrwt beam="1">  1        1 0.36391070E-02 0.93978143E+02</pdfrwt>
<pdfrwt beam="2">  1       -1 0.14360587E-01 0.93978143E+02</pdfrwt>
<totfact> 0.76227370E+04</totfact>
</mgrwt>
</event>
<event>
 7    1  0.3565607E-009  0.9158671E+02  0.7818608E-02  0.1299054E+00
         -1   -1    0    0    0  501 -0.00000000000E+00  0.00000000000E+00  0.17571531144E+02  0.17571531867E+02  0.50400000000E-02 0.  1.
          1   -1    0    0  501    0  0.00000000000E+00 -0.00000000000E+00 -0.11934253716E+03  0.11934253726E+03  0.50400000000E-02 0. -1.
         23    2    1    2    0    0  0.44408920985E-15 -0.35527136788E-14 -0.10177100601E+03  0.13691406913E+03  0.91586705700E+02 0.  0.
    9000005    2    3    3    0    0  0.33833407186E+01 -0.23376556421E+02 -0.10884065589E+03  0.11225863699E+03  0.14064239077E+02 0.  0.
         22    1    3    3    0    0 -0.33833407186E+01  0.23376556421E+02  0.70696498757E+01  0.24655432137E+02  0.00000000000E+00 0.  1.
         22    1    4    4    0    0  0.39686198104E+01 -0.87215702940E+01 -0.71527356960E+02  0.72166325424E+02  0.00000000000E+00 0. -1.
         22    1    4    4    0    0 -0.58527909182E+00 -0.14654986127E+02 -0.37313298928E+02  0.40092311568E+02  0.00000000000E+00 0. -1.
<mgrwt>
<rscale>  0 0.91586706E+02</rscale>
<asrwt>0</asrwt>
<pdfrwt beam="2">  1        1 0.18360390E-01 0.91586706E+02</pdfrwt>
<pdfrwt beam="1">  1       -1 0.27033126E-02 0.91586706E+02</pdfrwt>
<totfact> 0.10633291E+05</totfact>
</mgrwt>
</event>
<event>
 7    1  0.3565607E-009  0.1008595E+03  0.7818608E-02  0.1278499E+00
         -1   -1    0    0    0  501 -0.00000000000E+00  0.00000000000E+00  0.47089134493E+01  0.47089161465E+01  0.50400000000E-02 0.  1.
          1   -1    0    0  501    0  0.00000000000E+00 -0.00000000000E+00 -0.54007356362E+03  0.54007356364E+03  0.50400000000E-02 0. -1.
         23    2    1    2    0    0  0.71054273576E-14  0.00000000000E+00 -0.53536465017E+03  0.54478247979E+03  0.10085951434E+03 0.  0.
    9000005    2    3    3    0    0 -0.49541765344E+02 -0.72006097961E+01 -0.23871252217E+03  0.24393580731E+03  0.38437680023E+01 0.  0.
         22    1    3    3    0    0  0.49541765344E+02  0.72006097961E+01 -0.29665212800E+03  0.30084667248E+03  0.00000000000E+00 0.  1.
         22    1    4    4    0    0 -0.49335354183E+02 -0.74001257948E+01 -0.23647024603E+03  0.24167522896E+03  0.00000000000E+00 0. -1.
         22    1    4    4    0    0 -0.20641116135E+00  0.19951599872E+00 -0.22422761363E+01  0.22605783491E+01  0.00000000000E+00 0. -1.
<mgrwt>
<rscale>  0 0.10085951E+03</rscale>
<asrwt>0</asrwt>
<pdfrwt beam="2">  1        1 0.83088192E-01 0.10085951E+03</pdfrwt>
<pdfrwt beam="1">  1       -1 0.72444886E-03 0.10085951E+03</pdfrwt>
<totfact> 0.10733697E+05</totfact>
</mgrwt>
</event>
<event>
 6    1  0.3565607E-009  0.1322737E+03  0.7818608E-02  0.1224120E+00
          1   -1    0    0  501    0  0.00000000000E+00  0.00000000000E+00  0.14662592467E+02  0.14662593333E+02  0.50400000000E-02 0. -1.
         -1   -1    0    0    0  501 -0.00000000000E+00 -0.00000000000E+00 -0.29831564074E+03  0.29831564078E+03  0.50400000000E-02 0.  1.
    9000005    2    1    2    0    0 -0.51459180091E+02 -0.34000402457E+02 -0.86578351128E+02  0.10647760255E+03  0.61314253971E+01 0.  0.
         22    1    1    2    0    0  0.51459180091E+02  0.34000402457E+02 -0.19707469714E+03  0.20650063157E+03  0.00000000000E+00 0.  1.
         22    1    3    3    0    0 -0.19258602155E+02 -0.16083035351E+02 -0.33195148355E+02  0.41611004042E+02  0.00000000000E+00 0. -1.
         22    1    3    3    0    0 -0.32200577936E+02 -0.17917367106E+02 -0.53383202773E+02  0.64866598506E+02  0.00000000000E+00 0. -1.
<mgrwt>
<rscale>  0 0.13227367E+03</rscale>
<asrwt>0</asrwt>
<pdfrwt beam="1">  1        1 0.22557838E-02 0.13227367E+03</pdfrwt>
<pdfrwt beam="2">  1       -1 0.45894709E-01 0.13227367E+03</pdfrwt>
<totfact> 0.22693108E+04</totfact>
</mgrwt>
</event>
<event>
 7    1  0.3565607E-009  0.8846415E+02  0.7818608E-02  0.1306614E+00
         -1   -1    0    0    0  501 -0.00000000000E+00  0.00000000000E+00  0.20777572163E+02  0.20777572774E+02  0.50400000000E-02 0.  1.
          1   -1    0    0  501    0  0.00000000000E+00 -0.00000000000E+00 -0.94162892301E+02  0.94162892436E+02  0.50400000000E-02 0. -1.
         23    2    1    2    0    0 -0.17763568394E-14 -0.71054273576E-14 -0.73385320138E+02  0.11494046521E+03  0.88464147150E+02 0.  0.
    9000005    2    3    3    0    0 -0.14106819364E+02 -0.29612844955E+02 -0.73717128098E+02  0.82137522729E+02  0.15376434115E+02 0.  0.
         22    1    3    3    0    0  0.14106819364E+02  0.29612844955E+02  0.33180796035E+00  0.32802942481E+02  0.00000000000E+00 0.  1.
         22    1    4    4    0    0 -0.15486405192E+02 -0.17662782403E+02 -0.40635108695E+02  0.46936283264E+02  0.00000000000E+00 0.  1.
         22    1    4    4    0    0  0.13795858284E+01 -0.11950062552E+02 -0.33082019403E+02  0.35201239465E+02  0.00000000000E+00 0.  1.
<mgrwt>
<rscale>  0 0.88464147E+02</rscale>
<asrwt>0</asrwt>
<pdfrwt beam="2">  1        1 0.14486599E-01 0.88464147E+02</pdfrwt>
<pdfrwt beam="1">  1       -1 0.31965497E-02 0.88464147E+02</pdfrwt>
<totfact> 0.11228596E+05</totfact>
</mgrwt>
</event>
<event>
 7    1  0.3565607E-009  0.9228385E+02  0.7818608E-02  0.1297413E+00
         -1   -1    0    0    0  501 -0.00000000000E+00  0.00000000000E+00  0.17386308266E+03  0.17386308273E+03  0.50400000000E-02 0.  1.
          1   -1    0    0  501    0  0.00000000000E+00 -0.00000000000E+00 -0.12245711974E+02  0.12245713012E+02  0.50400000000E-02 0. -1.
         23    2    1    2    0    0  0.35527136788E-14 -0.35527136788E-14  0.16161737069E+03  0.18610879575E+03  0.92283852034E+02 0.  0.
    9000005    2    3    3    0    0 -0.19468162735E+02  0.31035433587E+02  0.25940121833E+02  0.45572240520E+02  0.78569515142E+01 0.  0.
         22    1    3    3    0    0  0.19468162735E+02 -0.31035433587E+02  0.13567724885E+03  0.14053655523E+03  0.00000000000E+00 0.  1.
         22    1    4    4    0    0 -0.19553003987E+02  0.27191920857E+02  0.22025035946E+02  0.40085193441E+02  0.00000000000E+00 0. -1.
         22    1    4    4    0    0  0.84841251587E-01  0.38435127299E+01  0.39150858867E+01  0.54870470786E+01  0.00000000000E+00 0. -1.
<mgrwt>
<rscale>  0 0.92283852E+02</rscale>
<asrwt>0</asrwt>
<pdfrwt beam="2">  1        1 0.18839559E-02 0.92283852E+02</pdfrwt>
<pdfrwt beam="1">  1       -1 0.26748165E-01 0.92283852E+02</pdfrwt>
<totfact> 0.69890374E+04</totfact>
</mgrwt>
</event>
<event>
 7    1  0.3565607E-009  0.9092343E+02  0.7818608E-02  0.1300631E+00
         -1   -1    0    0    0  501 -0.00000000000E+00  0.00000000000E+00  0.10065773441E+03  0.10065773454E+03  0.50400000000E-02 0.  1.
          1   -1    0    0  501    0  0.00000000000E+00 -0.00000000000E+00 -0.20532624370E+02  0.20532624989E+02  0.50400000000E-02 0. -1.
         23    2    1    2    0    0 -0.35527136788E-14 -0.35527136788E-14  0.80125110041E+02  0.12119035953E+03  0.90923429230E+02 0.  0.
    9000005    2    3    3    0    0  0.27498630211E+02  0.30117615732E+02  0.13874308692E+02  0.43393096591E+02  0.52171782776E+01 0.  0.
         22    1    3    3    0    0 -0.27498630211E+02 -0.30117615732E+02  0.66250801349E+02  0.77797262935E+02  0.00000000000E+00 0.  1.
         22    1    4    4    0    0  0.54193505727E+01  0.77007361936E+01  0.12860187702E+01  0.95039224971E+01  0.00000000000E+00 0. -1.
         22    1    4    4    0    0  0.22079279638E+02  0.22416879538E+02  0.12588289922E+02  0.33889174094E+02  0.00000000000E+00 0. -1.
<mgrwt>
<rscale>  0 0.90923429E+02</rscale>
<asrwt>0</asrwt>
<pdfrwt beam="2">  1        1 0.31588653E-02 0.90923429E+02</pdfrwt>
<pdfrwt beam="1">  1       -1 0.15485805E-01 0.90923429E+02</pdfrwt>
<totfact> 0.81856023E+04</totfact>
</mgrwt>
</event>
<event>
 7    1  0.3565607E-009  0.8392502E+02  0.7818608E-02  0.1318268E+00
         -1   -1    0    0    0  501 -0.00000000000E+00  0.00000000000E+00  0.49664352992E+02  0.49664353248E+02  0.50400000000E-02 0.  1.
          1   -1    0    0  501    0  0.00000000000E+00 -0.00000000000E+00 -0.35455056218E+02  0.35455056576E+02  0.50400000000E-02 0. -1.
         23    2    1    2    0    0  0.35527136788E-14  0.00000000000E+00  0.14209296775E+02  0.85119409824E+02  0.83925024957E+02 0.  0.
    9000005    2    3    3    0    0  0.19829478719E+02 -0.25307516801E+02  0.33870513327E+02  0.47433310673E+02  0.83083485357E+01 0.  0.
         22    1    3    3    0    0 -0.19829478719E+02  0.25307516801E+02 -0.19661216553E+02  0.37686099151E+02  0.00000000000E+00 0. -1.
         22    1    4    4    0    0  0.17957960164E+00 -0.12117960584E+00  0.30061837764E+01  0.30139797988E+01  0.00000000000E+00 0.  1.
         22    1    4    4    0    0  0.19649899117E+02 -0.25186337195E+02  0.30864329551E+02  0.44419330874E+02  0.00000000000E+00 0.  1.
<mgrwt>
<rscale>  0 0.83925025E+02</rscale>
<asrwt>0</asrwt>
<pdfrwt beam="2">  1        1 0.54546241E-02 0.83925025E+02</pdfrwt>
<pdfrwt beam="1">  1       -1 0.76406697E-02 0.83925025E+02</pdfrwt>
<totfact> 0.11243409E+05</totfact>
</mgrwt>
</event>
<event>
 7    1  0.5242757E-009  0.9177661E+02  0.7818608E-02  0.1298606E+00
          1   -1    0    0  501    0  0.00000000000E+00  0.00000000000E+00  0.16329007152E+02  0.16329007930E+02  0.50400000000E-02 0. -1.
         -1   -1    0    0    0  501 -0.00000000000E+00 -0.00000000000E+00 -0.12895680639E+03  0.12895680649E+03  0.50400000000E-02 0.  1.
         23    2    1    2    0    0  0.00000000000E+00  0.35527136788E-14 -0.11262779924E+03  0.14528581442E+03  0.91776613087E+02 0.  0.
    9000005    2    3    3    0    0  0.84282903633E+01 -0.25464221223E+02 -0.11437147997E+03  0.11840639732E+03  0.14824872827E+02 0.  0.
         22    1    3    3    0    0 -0.84282903633E+01  0.25464221223E+02  0.17436807356E+01  0.26879417097E+02  0.00000000000E+00 0. -1.
         22    1    4    4    0    0  0.88717406483E+01 -0.15200575900E+02 -0.93517759867E+02  0.95159532893E+02  0.00000000000E+00 0.  1.
         22    1    4    4    0    0 -0.44345028495E+00 -0.10263645323E+02 -0.20853720104E+02  0.23246864426E+02  0.00000000000E+00 0.  1.
<mgrwt>
<rscale>  0 0.91776613E+02</rscale>
<asrwt>0</asrwt>
<pdfrwt beam="1">  1        1 0.25121551E-02 0.91776613E+02</pdfrwt>
<pdfrwt beam="2">  1       -1 0.19839508E-01 0.91776613E+02</pdfrwt>
<totfact> 0.76054631E+04</totfact>
</mgrwt>
</event>
<event>
 7    1  0.3565607E-009  0.8853324E+02  0.7818608E-02  0.1306443E+00
         -1   -1    0    0    0  501 -0.00000000000E+00  0.00000000000E+00  0.21201121935E+02  0.21201122534E+02  0.50400000000E-02 0.  1.
          1   -1    0    0  501    0  0.00000000000E+00 -0.00000000000E+00 -0.92425936823E+02  0.92425936961E+02  0.50400000000E-02 0. -1.
         23    2    1    2    0    0  0.00000000000E+00  0.17763568394E-14 -0.71224814889E+02  0.11362705949E+03  0.88533238918E+02 0.  0.
    9000005    2    3    3    0    0  0.36394909641E+02 -0.15616612356E+02 -0.59571453738E+02  0.72344268220E+02  0.10791988442E+02 0.  0.
         22    1    3    3    0    0 -0.36394909641E+02  0.15616612356E+02 -0.11653361150E+02  0.41282791274E+02  0.00000000000E+00 0.  1.
         22    1    4    4    0    0  0.15230561822E+02 -0.12303409275E+02 -0.26727151011E+02  0.33131321953E+02  0.00000000000E+00 0.  1.
         22    1    4    4    0    0  0.21164347820E+02 -0.33132030803E+01 -0.32844302727E+02  0.39212946267E+02  0.00000000000E+00 0.  1.
<mgrwt>
<rscale>  0 0.88533239E+02</rscale>
<asrwt>0</asrwt>
<pdfrwt beam="2">  1        1 0.14219375E-01 0.88533239E+02</pdfrwt>
<pdfrwt beam="1">  1       -1 0.32617112E-02 0.88533239E+02</pdfrwt>
<totfact> 0.11171220E+05</totfact>
</mgrwt>
</event>
<event>
 7    1  0.3565607E-009  0.9273443E+02  0.7818608E-02  0.1296362E+00
          1   -1    0    0  501    0  0.00000000000E+00  0.00000000000E+00  0.16495930498E+03  0.16495930506E+03  0.50400000000E-02 0. -1.
         -1   -1    0    0    0  501 -0.00000000000E+00 -0.00000000000E+00 -0.13033023376E+02  0.13033024350E+02  0.50400000000E-02 0.  1.
         23    2    1    2    0    0  0.00000000000E+00 -0.35527136788E-14  0.15192628161E+03  0.17799232941E+03  0.92734428805E+02 0.  0.
    9000005    2    3    3    0    0  0.70064905586E+01  0.25164069795E+02  0.14872650276E+03  0.15167579652E+03  0.14270715040E+02 0.  0.
         22    1    3    3    0    0 -0.70064905586E+01 -0.25164069795E+02  0.31997788442E+01  0.26316532888E+02  0.00000000000E+00 0.  1.
         22    1    4    4    0    0  0.63651209048E-01  0.33620206067E+01  0.43535657482E+01  0.55009788911E+01  0.00000000000E+00 0. -1.
         22    1    4    4    0    0  0.69428393496E+01  0.21802049188E+02  0.14437293702E+03  0.14617481763E+03  0.00000000000E+00 0. -1.
<mgrwt>
<rscale>  0 0.92734429E+02</rscale>
<asrwt>0</asrwt>
<pdfrwt beam="1">  1        1 0.25378355E-01 0.92734429E+02</pdfrwt>
<pdfrwt beam="2">  1       -1 0.20050806E-02 0.92734429E+02</pdfrwt>
<totfact> 0.10903265E+05</totfact>
</mgrwt>
</event>
<event>
 7    1  0.3565607E-009  0.9489844E+02  0.7818608E-02  0.1291405E+00
         -1   -1    0    0    0  501 -0.00000000000E+00  0.00000000000E+00  0.30272086815E+03  0.30272086819E+03  0.50400000000E-02 0.  1.
          1   -1    0    0  501    0  0.00000000000E+00 -0.00000000000E+00 -0.74373068552E+01  0.74373085629E+01  0.50400000000E-02 0. -1.
         23    2    1    2    0    0  0.00000000000E+00  0.00000000000E+00  0.29528356129E+03  0.31015817675E+03  0.94898435376E+02 0.  0.
    9000005    2    3    3    0    0  0.21666431289E+02 -0.29087428060E+02  0.24740041073E+03  0.25008897646E+03  0.46925687127E+01 0.  0.
         22    1    3    3    0    0 -0.21666431289E+02  0.29087428060E+02  0.47883150556E+02  0.60069200287E+02  0.00000000000E+00 0. -1.
         22    1    4    4    0    0  0.21458999734E+02 -0.29266913796E+02  0.24592106360E+03  0.24858441310E+03  0.00000000000E+00 0.  1.
         22    1    4    4    0    0  0.20743155431E+00  0.17948573613E+00  0.14793471302E+01  0.15045633622E+01  0.00000000000E+00 0.  1.
<mgrwt>
<rscale>  0 0.94898435E+02</rscale>
<asrwt>0</asrwt>
<pdfrwt beam="2">  1        1 0.11442011E-02 0.94898435E+02</pdfrwt>
<pdfrwt beam="1">  1       -1 0.46572445E-01 0.94898435E+02</pdfrwt>
<totfact> 0.54362015E+04</totfact>
</mgrwt>
</event>
<event>
 7    1  0.3565607E-009  0.8878022E+02  0.7818608E-02  0.1305833E+00
         -1   -1    0    0    0  501 -0.00000000000E+00  0.00000000000E+00  0.26665094508E+02  0.26665094984E+02  0.50400000000E-02 0.  1.
          1   -1    0    0  501    0  0.00000000000E+00 -0.00000000000E+00 -0.73897418915E+02  0.73897419087E+02  0.50400000000E-02 0. -1.
         23    2    1    2    0    0  0.17763568394E-14  0.88817841970E-15 -0.47232324407E+02  0.10056251407E+03  0.88780216081E+02 0.  0.
    9000005    2    3    3    0    0 -0.12953006590E+02 -0.70158985806E+01  0.23208915660E+02  0.28597442580E+02  0.78839548081E+01 0.  0.
         22    1    3    3    0    0  0.12953006590E+02  0.70158985806E+01 -0.70441240066E+02  0.71965071491E+02  0.00000000000E+00 0. -1.
         22    1    4    4    0    0 -0.11650366258E+02 -0.82415509083E+01  0.17314337419E+02  0.22437479260E+02  0.00000000000E+00 0. -1.
         22    1    4    4    0    0 -0.13026403328E+01  0.12256523277E+01  0.58945782409E+01  0.61599633199E+01  0.00000000000E+00 0. -1.
<mgrwt>
<rscale>  0 0.88780216E+02</rscale>
<asrwt>0</asrwt>
<pdfrwt beam="2">  1        1 0.11368834E-01 0.88780216E+02</pdfrwt>
<pdfrwt beam="1">  1       -1 0.41023223E-02 0.88780216E+02</pdfrwt>
<totfact> 0.10704678E+05</totfact>
</mgrwt>
</event>
<event>
 7    1  0.3565607E-009  0.9202801E+02  0.7818608E-02  0.1298014E+00
         -1   -1    0    0    0  501 -0.00000000000E+00  0.00000000000E+00  0.29457905764E+02  0.29457906195E+02  0.50400000000E-02 0.  1.
          1   -1    0    0  501    0  0.00000000000E+00 -0.00000000000E+00 -0.71875054129E+02  0.71875054306E+02  0.50400000000E-02 0. -1.
         23    2    1    2    0    0  0.00000000000E+00  0.00000000000E+00 -0.42417148366E+02  0.10133296050E+03  0.92028008826E+02 0.  0.
    9000005    2    3    3    0    0  0.13322408239E+02 -0.41905783703E+02 -0.70288042037E+01  0.44889039911E+02  0.56604369519E+01 0.  0.
         22    1    3    3    0    0 -0.13322408239E+02  0.41905783703E+02 -0.35388344162E+02  0.56443920590E+02  0.00000000000E+00 0. -1.
         22    1    4    4    0    0  0.53315883621E+01 -0.25907211894E+02 -0.44046905393E+01  0.26814376020E+02  0.00000000000E+00 0. -1.
         22    1    4    4    0    0  0.79908198770E+01 -0.15998571810E+02 -0.26241136644E+01  0.18074663891E+02  0.00000000000E+00 0. -1.
<mgrwt>
<rscale>  0 0.92028009E+02</rscale>
<asrwt>0</asrwt>
<pdfrwt beam="2">  1        1 0.11057701E-01 0.92028009E+02</pdfrwt>
<pdfrwt beam="1">  1       -1 0.45319856E-02 0.92028009E+02</pdfrwt>
<totfact> 0.96562887E+04</totfact>
</mgrwt>
</event>
<event>
 7    1  0.3565607E-009  0.9270960E+02  0.7818608E-02  0.1296420E+00
         -1   -1    0    0    0  501 -0.00000000000E+00  0.00000000000E+00  0.10496018050E+03  0.10496018062E+03  0.50400000000E-02 0.  1.
          1   -1    0    0  501    0  0.00000000000E+00 -0.00000000000E+00 -0.20472214002E+02  0.20472214622E+02  0.50400000000E-02 0. -1.
         23    2    1    2    0    0 -0.35527136788E-14 -0.35527136788E-14  0.84487966498E+02  0.12543239524E+03  0.92709596556E+02 0.  0.
    9000005    2    3    3    0    0  0.20268384471E+02  0.16288476491E+02 -0.92685532053E+01  0.28136933570E+02  0.54460147568E+01 0.  0.
         22    1    3    3    0    0 -0.20268384471E+02 -0.16288476491E+02  0.93756519703E+02  0.97295461674E+02  0.00000000000E+00 0.  1.
         22    1    4    4    0    0  0.15784854125E+01  0.20920021478E+01  0.57998736058E+00  0.26841152215E+01  0.00000000000E+00 0.  1.
         22    1    4    4    0    0  0.18689899058E+02  0.14196474343E+02 -0.98485405659E+01  0.25452818348E+02  0.00000000000E+00 0.  1.
<mgrwt>
<rscale>  0 0.92709597E+02</rscale>
<asrwt>0</asrwt>
<pdfrwt beam="2">  1        1 0.31495714E-02 0.92709597E+02</pdfrwt>
<pdfrwt beam="1">  1       -1 0.16147720E-01 0.92709597E+02</pdfrwt>
<totfact> 0.77236424E+04</totfact>
</mgrwt>
</event>
<event>
 7    1  0.3565607E-009  0.9099573E+02  0.7818608E-02  0.1300458E+00
          1   -1    0    0  501    0  0.00000000000E+00  0.00000000000E+00  0.76044539684E+02  0.76044539851E+02  0.50400000000E-02 0. -1.
         -1   -1    0    0    0  501 -0.00000000000E+00 -0.00000000000E+00 -0.27221624626E+02  0.27221625093E+02  0.50400000000E-02 0.  1.
         23    2    1    2    0    0  0.00000000000E+00  0.00000000000E+00  0.48822915058E+02  0.10326616494E+03  0.90995734996E+02 0.  0.
    9000005    2    3    3    0    0  0.25840067657E+02 -0.32740301535E+02  0.44918544540E+02  0.61374870499E+02  0.30923525045E+01 0.  0.
         22    1    3    3    0    0 -0.25840067657E+02  0.32740301535E+02  0.39043705179E+01  0.41891294445E+02  0.00000000000E+00 0.  1.
         22    1    4    4    0    0  0.17581680904E+02 -0.20577220003E+02  0.30609542543E+02  0.40859290022E+02  0.00000000000E+00 0. -1.
         22    1    4    4    0    0  0.82583867534E+01 -0.12163081533E+02  0.14309001997E+02  0.20515580477E+02  0.00000000000E+00 0. -1.
<mgrwt>
<rscale>  0 0.90995735E+02</rscale>
<asrwt>0</asrwt>
<pdfrwt beam="1">  1        1 0.11699160E-01 0.90995735E+02</pdfrwt>
<pdfrwt beam="2">  1       -1 0.41879424E-02 0.90995735E+02</pdfrwt>
<totfact> 0.10049315E+05</totfact>
</mgrwt>
</event>
<event>
 7    1  0.3565607E-009  0.9113255E+02  0.7818608E-02  0.1300132E+00
         -1   -1    0    0    0  501 -0.00000000000E+00  0.00000000000E+00  0.10763440329E+03  0.10763440341E+03  0.50400000000E-02 0.  1.
          1   -1    0    0  501    0  0.00000000000E+00 -0.00000000000E+00 -0.19290164478E+02  0.19290165136E+02  0.50400000000E-02 0. -1.
         23    2    1    2    0    0 -0.35527136788E-14  0.35527136788E-14  0.88344238816E+02  0.12692456855E+03  0.91132549449E+02 0.  0.
    9000005    2    3    3    0    0 -0.17384644768E+02  0.18700937710E+02  0.96386705819E+02  0.10015458124E+03  0.94123397614E+01 0.  0.
         22    1    3    3    0    0  0.17384644768E+02 -0.18700937710E+02 -0.80424670034E+01  0.26769987307E+02  0.00000000000E+00 0. -1.
         22    1    4    4    0    0 -0.15455057692E+02  0.12743712584E+02  0.82888093122E+02  0.85274245819E+02  0.00000000000E+00 0.  1.
         22    1    4    4    0    0 -0.19295870758E+01  0.59572251257E+01  0.13498612697E+02  0.14880335421E+02  0.00000000000E+00 0.  1.
<mgrwt>
<rscale>  0 0.91132549E+02</rscale>
<asrwt>0</asrwt>
<pdfrwt beam="2">  1        1 0.29677176E-02 0.91132549E+02</pdfrwt>
<pdfrwt beam="1">  1       -1 0.16559139E-01 0.91132549E+02</pdfrwt>
<totfact> 0.80345720E+04</totfact>
</mgrwt>
</event>
<event>
 7    1  0.3565607E-009  0.9187020E+02  0.7818608E-02  0.1298385E+00
         -1   -1    0    0    0  501 -0.00000000000E+00  0.00000000000E+00  0.21930629408E+03  0.21930629414E+03  0.50400000000E-02 0.  1.
          1   -1    0    0  501    0  0.00000000000E+00 -0.00000000000E+00 -0.96213992585E+01  0.96214005786E+01  0.50400000000E-02 0. -1.
         23    2    1    2    0    0  0.00000000000E+00  0.00000000000E+00  0.20968489482E+03  0.22892769472E+03  0.91870203504E+02 0.  0.
    9000005    2    3    3    0    0 -0.11574600182E+02  0.38749086143E+02  0.15881843457E+03  0.16394415969E+03  0.43507804218E+01 0.  0.
         22    1    3    3    0    0  0.11574600182E+02 -0.38749086143E+02  0.50866460252E+02  0.64983535029E+02  0.00000000000E+00 0. -1.
         22    1    4    4    0    0 -0.99229350786E+01  0.31112060262E+02  0.12116615961E+03  0.12548969348E+03  0.00000000000E+00 0.  1.
         22    1    4    4    0    0 -0.16516651038E+01  0.76370258809E+01  0.37652274955E+02  0.38454466206E+02  0.00000000000E+00 0.  1.
<mgrwt>
<rscale>  0 0.91870204E+02</rscale>
<asrwt>0</asrwt>
<pdfrwt beam="2">  1        1 0.14802155E-02 0.91870204E+02</pdfrwt>
<pdfrwt beam="1">  1       -1 0.33739427E-01 0.91870204E+02</pdfrwt>
<totfact> 0.66233499E+04</totfact>
</mgrwt>
</event>
<event>
 7    1  0.3565607E-009  0.9032113E+02  0.7818608E-02  0.1302076E+00
         -1   -1    0    0    0  501 -0.00000000000E+00  0.00000000000E+00  0.13075370164E+03  0.13075370174E+03  0.50400000000E-02 0.  1.
          1   -1    0    0  501    0  0.00000000000E+00 -0.00000000000E+00 -0.15597849075E+02  0.15597849889E+02  0.50400000000E-02 0. -1.
         23    2    1    2    0    0  0.00000000000E+00  0.00000000000E+00  0.11515585256E+03  0.14635155163E+03  0.90321128666E+02 0.  0.
    9000005    2    3    3    0    0  0.21049433800E+01 -0.27932302177E+02  0.29555724297E+01  0.30707497936E+02  0.12229911266E+02 0.  0.
         22    1    3    3    0    0 -0.21049433800E+01  0.27932302177E+02  0.11220028013E+03  0.11564405369E+03  0.00000000000E+00 0.  1.
         22    1    4    4    0    0  0.69483634700E+01 -0.14489506072E+02 -0.21676081774E+00  0.16070859541E+02  0.00000000000E+00 0.  1.
         22    1    4    4    0    0 -0.48434200899E+01 -0.13442796105E+02  0.31723332474E+01  0.14636638395E+02  0.00000000000E+00 0.  1.
<mgrwt>
<rscale>  0 0.90321129E+02</rscale>
<asrwt>0</asrwt>
<pdfrwt beam="2">  1        1 0.23996691E-02 0.90321129E+02</pdfrwt>
<pdfrwt beam="1">  1       -1 0.20115954E-01 0.90321129E+02</pdfrwt>
<totfact> 0.79033725E+04</totfact>
</mgrwt>
</event>
<event>
 7    1  0.3565607E-009  0.9276302E+02  0.7818608E-02  0.1296295E+00
         -1   -1    0    0    0  501 -0.00000000000E+00  0.00000000000E+00  0.86863081171E+02  0.86863081317E+02  0.50400000000E-02 0.  1.
          1   -1    0    0  501    0  0.00000000000E+00 -0.00000000000E+00 -0.24765922086E+02  0.24765922599E+02  0.50400000000E-02 0. -1.
         23    2    1    2    0    0  0.44408920985E-15  0.00000000000E+00  0.62097159085E+02  0.11162900392E+03  0.92763017140E+02 0.  0.
    9000005    2    3    3    0    0  0.38417696726E+01 -0.45609714385E+02  0.36728252223E+02  0.59297496429E+02  0.84984310843E+01 0.  0.
         22    1    3    3    0    0 -0.38417696726E+01  0.45609714385E+02  0.25368906861E+02  0.52331507487E+02  0.00000000000E+00 0.  1.
         22    1    4    4    0    0  0.10837466519E+01 -0.18708523759E+02  0.20432224953E+02  0.27724703507E+02  0.00000000000E+00 0. -1.
         22    1    4    4    0    0  0.27580230206E+01 -0.26901190626E+02  0.16296027270E+02  0.31572792922E+02  0.00000000000E+00 0. -1.
<mgrwt>
<rscale>  0 0.92763017E+02</rscale>
<asrwt>0</asrwt>
<pdfrwt beam="2">  1        1 0.38101419E-02 0.92763017E+02</pdfrwt>
<pdfrwt beam="1">  1       -1 0.13363551E-01 0.92763017E+02</pdfrwt>
<totfact> 0.79844523E+04</totfact>
</mgrwt>
</event>
<event>
 7    1  0.3565607E-009  0.9317024E+02  0.7818608E-02  0.1295351E+00
         -1   -1    0    0    0  501 -0.00000000000E+00  0.00000000000E+00  0.92625216791E+01  0.92625230503E+01  0.50400000000E-02 0.  1.
          1   -1    0    0  501    0  0.00000000000E+00 -0.00000000000E+00 -0.23429615593E+03  0.23429615599E+03  0.50400000000E-02 0. -1.
         23    2    1    2    0    0  0.00000000000E+00  0.88817841970E-15 -0.22503363425E+03  0.24355867904E+03  0.93170239824E+02 0.  0.
    9000005    2    3    3    0    0 -0.37623285518E+02  0.63961649101E+01 -0.18064334322E+03  0.18501877404E+03  0.11979430715E+02 0.  0.
         22    1    3    3    0    0  0.37623285518E+02 -0.63961649101E+01 -0.44390291038E+02  0.58539904998E+02  0.00000000000E+00 0.  1.
         22    1    4    4    0    0 -0.13573608511E+02  0.26671725412E+01 -0.41004647810E+02  0.43275140663E+02  0.00000000000E+00 0. -1.
         22    1    4    4    0    0 -0.24049677007E+02  0.37289923690E+01 -0.13963869540E+03  0.14174363338E+03  0.00000000000E+00 0. -1.
<mgrwt>
<rscale>  0 0.93170240E+02</rscale>
<asrwt>0</asrwt>
<pdfrwt beam="2">  1        1 0.36045558E-01 0.93170240E+02</pdfrwt>
<pdfrwt beam="1">  1       -1 0.14250036E-02 0.93170240E+02</pdfrwt>
<totfact> 0.11524005E+05</totfact>
</mgrwt>
</event>
<event>
 7    1  0.3565607E-009  0.9119558E+02  0.7818608E-02  0.1299982E+00
          1   -1    0    0  501    0  0.00000000000E+00  0.00000000000E+00  0.26719473250E+02  0.26719473726E+02  0.50400000000E-02 0. -1.
         -1   -1    0    0    0  501 -0.00000000000E+00 -0.00000000000E+00 -0.77814348821E+02  0.77814348984E+02  0.50400000000E-02 0.  1.
         23    2    1    2    0    0  0.00000000000E+00  0.00000000000E+00 -0.51094875570E+02  0.10453382271E+03  0.91195579831E+02 0.  0.
    9000005    2    3    3    0    0  0.17894173920E+02 -0.35109623201E+02 -0.18819114639E+01  0.41487784470E+02  0.12837739984E+02 0.  0.
         22    1    3    3    0    0 -0.17894173920E+02  0.35109623201E+02 -0.49212964107E+02  0.63046038240E+02  0.00000000000E+00 0.  1.
         22    1    4    4    0    0  0.18225328773E+02 -0.25520000695E+02 -0.41358197434E+01  0.31631282764E+02  0.00000000000E+00 0.  1.
         22    1    4    4    0    0 -0.33115485324E+00 -0.95896225057E+01  0.22539082795E+01  0.98565017055E+01  0.00000000000E+00 0.  1.
<mgrwt>
<rscale>  0 0.91195580E+02</rscale>
<asrwt>0</asrwt>
<pdfrwt beam="1">  1        1 0.41106883E-02 0.91195580E+02</pdfrwt>
<pdfrwt beam="2">  1       -1 0.11971438E-01 0.91195580E+02</pdfrwt>
<totfact> 0.85001327E+04</totfact>
</mgrwt>
</event>
<event>
 7    1  0.3565607E-009  0.9216727E+02  0.7818608E-02  0.1297687E+00
          1   -1    0    0  501    0  0.00000000000E+00  0.00000000000E+00  0.48793506308E+01  0.48793532338E+01  0.50400000000E-02 0. -1.
         -1   -1    0    0    0  501 -0.00000000000E+00 -0.00000000000E+00 -0.43524250217E+03  0.43524250220E+03  0.50400000000E-02 0.  1.
         23    2    1    2    0    0  0.00000000000E+00 -0.88817841970E-15 -0.43036315154E+03  0.44012185544E+03  0.92167268741E+02 0.  0.
    9000005    2    3    3    0    0  0.37697967159E+02  0.53493433077E+01 -0.33371862682E+03  0.33624733324E+03  0.15633138699E+02 0.  0.
         22    1    3    3    0    0 -0.37697967159E+02 -0.53493433077E+01 -0.96644524723E+02  0.10387452219E+03  0.00000000000E+00 0. -1.
         22    1    4    4    0    0  0.11243502293E+02  0.80132936170E+01 -0.14667406317E+03  0.14732246952E+03  0.00000000000E+00 0.  1.
         22    1    4    4    0    0  0.26454464866E+02 -0.26639503093E+01 -0.18704456365E+03  0.18892486373E+03  0.00000000000E+00 0.  1.
<mgrwt>
<rscale>  0 0.92167269E+02</rscale>
<asrwt>0</asrwt>
<pdfrwt beam="1">  1        1 0.75066988E-03 0.92167269E+02</pdfrwt>
<pdfrwt beam="2">  1       -1 0.66960354E-01 0.92167269E+02</pdfrwt>
<totfact> 0.49556518E+04</totfact>
</mgrwt>
</event>
<event>
 6    1  0.3565607E-009  0.1426395E+03  0.7818608E-02  0.1209821E+00
         -1   -1    0    0    0  501 -0.00000000000E+00  0.00000000000E+00  0.24555666966E+02  0.24555667483E+02  0.50400000000E-02 0.  1.
          1   -1    0    0  501    0  0.00000000000E+00 -0.00000000000E+00 -0.20714198977E+03  0.20714198983E+03  0.50400000000E-02 0. -1.
    9000005    2    1    2    0    0  0.56247591092E+02 -0.18526317554E+02 -0.15466626129E+03  0.16622593991E+03  0.14226551569E+02 0.  0.
         22    1    1    2    0    0 -0.56247591092E+02  0.18526317554E+02 -0.27920061513E+02  0.65471717410E+02  0.00000000000E+00 0. -1.
         22    1    3    3    0    0  0.29212457218E+02 -0.15182759496E+02 -0.71586314896E+02  0.78793935826E+02  0.00000000000E+00 0. -1.
         22    1    3    3    0    0  0.27035133874E+02 -0.33435580579E+01 -0.83079946398E+02  0.87432004081E+02  0.00000000000E+00 0. -1.
<mgrwt>
<rscale>  0 0.14263954E+03</rscale>
<asrwt>0</asrwt>
<pdfrwt beam="2">  1        1 0.31867997E-01 0.14263954E+03</pdfrwt>
<pdfrwt beam="1">  1       -1 0.37777951E-02 0.14263954E+03</pdfrwt>
<totfact> 0.34799723E+04</totfact>
</mgrwt>
</event>
<event>
 7    1  0.3565607E-009  0.9094469E+02  0.7818608E-02  0.1300580E+00
         -1   -1    0    0    0  501 -0.00000000000E+00  0.00000000000E+00  0.16881236372E+01  0.16881311608E+01  0.50400000000E-02 0.  1.
          1   -1    0    0  501    0  0.00000000000E+00 -0.00000000000E+00 -0.12248686404E+04  0.12248686404E+04  0.50400000000E-02 0. -1.
         23    2    1    2    0    0 -0.35527136788E-14  0.35527136788E-14 -0.12231805168E+04  0.12265567716E+04  0.90944693627E+02 0.  0.
    9000005    2    3    3    0    0 -0.20034774480E+02  0.24580477114E+02 -0.10494919262E+04  0.10499970974E+04  0.74168318963E+01 0.  0.
         22    1    3    3    0    0  0.20034774480E+02 -0.24580477114E+02 -0.17368859060E+03  0.17655967419E+03  0.00000000000E+00 0.  1.
         22    1    4    4    0    0 -0.18697888796E+02  0.24613247998E+02 -0.10273028381E+04  0.10277677482E+04  0.00000000000E+00 0. -1.
         22    1    4    4    0    0 -0.13368856831E+01 -0.32770883619E-01 -0.22189088072E+02  0.22229349220E+02  0.00000000000E+00 0. -1.
<mgrwt>
<rscale>  0 0.90944694E+02</rscale>
<asrwt>0</asrwt>
<pdfrwt beam="2">  1        1 0.18844062E+00 0.90944694E+02</pdfrwt>
<pdfrwt beam="1">  1       -1 0.25971289E-03 0.90944694E+02</pdfrwt>
<totfact> 0.12689748E+05</totfact>
</mgrwt>
</event>
<event>
 7    1  0.3565607E-009  0.1004396E+03  0.7818608E-02  0.1279374E+00
         -1   -1    0    0    0  501 -0.00000000000E+00  0.00000000000E+00  0.16533390521E+02  0.16533391289E+02  0.50400000000E-02 0.  1.
          1   -1    0    0  501    0  0.00000000000E+00 -0.00000000000E+00 -0.15254160725E+03  0.15254160734E+03  0.50400000000E-02 0. -1.
         23    2    1    2    0    0  0.00000000000E+00  0.00000000000E+00 -0.13600821673E+03  0.16907499863E+03  0.10043963432E+03 0.  0.
    9000005    2    3    3    0    0 -0.44783935343E+02  0.60136429015E+01 -0.32272163737E+02  0.55924950209E+02  0.66590343040E+01 0.  0.
         22    1    3    3    0    0  0.44783935343E+02 -0.60136429015E+01 -0.10373605300E+03  0.11315004842E+03  0.00000000000E+00 0. -1.
         22    1    4    4    0    0 -0.16063948585E+02  0.84304280078E+00 -0.79861222899E+01  0.17959379570E+02  0.00000000000E+00 0. -1.
         22    1    4    4    0    0 -0.28719986757E+02  0.51706001007E+01 -0.24286041447E+02  0.37965570639E+02  0.00000000000E+00 0. -1.
<mgrwt>
<rscale>  0 0.10043963E+03</rscale>
<asrwt>0</asrwt>
<pdfrwt beam="2">  1        1 0.23467939E-01 0.10043963E+03</pdfrwt>
<pdfrwt beam="1">  1       -1 0.25435987E-02 0.10043963E+03</pdfrwt>
<totfact> 0.86505185E+04</totfact>
</mgrwt>
</event>
<event>
 7    1  0.3565607E-009  0.9212505E+02  0.7818608E-02  0.1297786E+00
         -1   -1    0    0    0  501 -0.00000000000E+00  0.00000000000E+00  0.97191944557E+03  0.97191944558E+03  0.50400000000E-02 0.  1.
          1   -1    0    0  501    0  0.00000000000E+00 -0.00000000000E+00 -0.21830548910E+01  0.21830607089E+01  0.50400000000E-02 0. -1.
         23    2    1    2    0    0  0.00000000000E+00  0.00000000000E+00  0.96973639068E+03  0.97410250629E+03  0.92125052820E+02 0.  0.
    9000005    2    3    3    0    0  0.46379219350E+01 -0.19046927862E+02  0.92403374515E+03  0.92437296186E+03  0.15579302458E+02 0.  0.
         22    1    3    3    0    0 -0.46379219350E+01  0.19046927862E+02  0.45702645532E+02  0.49729544432E+02  0.00000000000E+00 0. -1.
         22    1    4    4    0    0 -0.56212073619E+00 -0.19556686358E+02  0.67050038671E+03  0.67078576948E+03  0.00000000000E+00 0. -1.
         22    1    4    4    0    0  0.52000426712E+01  0.50975849555E+00  0.25353335843E+03  0.25358719237E+03  0.00000000000E+00 0. -1.
<mgrwt>
<rscale>  0 0.92125053E+02</rscale>
<asrwt>0</asrwt>
<pdfrwt beam="2">  1        1 0.33585559E-03 0.92125053E+02</pdfrwt>
<pdfrwt beam="1">  1       -1 0.14952583E+00 0.92125053E+02</pdfrwt>
<totfact> 0.25818565E+04</totfact>
</mgrwt>
</event>
<event>
 7    1  0.3565607E-009  0.8917486E+02  0.7818608E-02  0.1304862E+00
          1   -1    0    0  501    0  0.00000000000E+00  0.00000000000E+00  0.13818923616E+03  0.13818923626E+03  0.50400000000E-02 0. -1.
         -1   -1    0    0    0  501 -0.00000000000E+00 -0.00000000000E+00 -0.14386352354E+02  0.14386353237E+02  0.50400000000E-02 0.  1.
         23    2    1    2    0    0  0.00000000000E+00  0.00000000000E+00  0.12380288381E+03  0.15257558949E+03  0.89174864561E+02 0.  0.
    9000005    2    3    3    0    0  0.36522374221E+02  0.20915124533E+02  0.42691919785E+02  0.61195532927E+02  0.12286862182E+02 0.  0.
         22    1    3    3    0    0 -0.36522374221E+02 -0.20915124533E+02  0.81110964025E+02  0.91380056566E+02  0.00000000000E+00 0.  1.
         22    1    4    4    0    0  0.37159750000E+02  0.21363675852E+02  0.42562515652E+02  0.60405474955E+02  0.00000000000E+00 0.  1.
         22    1    4    4    0    0 -0.63737577851E+00 -0.44855131916E+00  0.12940413353E+00  0.79005797175E+00  0.00000000000E+00 0.  1.
<mgrwt>
<rscale>  0 0.89174865E+02</rscale>
<asrwt>0</asrwt>
<pdfrwt beam="1">  1        1 0.21259883E-01 0.89174865E+02</pdfrwt>
<pdfrwt beam="2">  1       -1 0.22132850E-02 0.89174865E+02</pdfrwt>
<totfact> 0.11728719E+05</totfact>
</mgrwt>
</event>
<event>
 7    1  0.3565607E-009  0.9314917E+02  0.7818608E-02  0.1295400E+00
          1   -1    0    0  501    0  0.00000000000E+00  0.00000000000E+00  0.23271744145E+03  0.23271744150E+03  0.50400000000E-02 0. -1.
         -1   -1    0    0    0  501 -0.00000000000E+00 -0.00000000000E+00 -0.93211401040E+01  0.93211414666E+01  0.50400000000E-02 0.  1.
         23    2    1    2    0    0  0.00000000000E+00 -0.17763568394E-14  0.22339630134E+03  0.24203858297E+03  0.93149171717E+02 0.  0.
    9000005    2    3    3    0    0 -0.36662013551E+02  0.14035254948E+02  0.53036091749E+02  0.67213834628E+02  0.12797691916E+02 0.  0.
         22    1    3    3    0    0  0.36662013551E+02 -0.14035254948E+02  0.17036020959E+03  0.17482474834E+03  0.00000000000E+00 0. -1.
         22    1    4    4    0    0 -0.20802616267E+02  0.14390116411E+02  0.29941884478E+02  0.39196182722E+02  0.00000000000E+00 0. -1.
         22    1    4    4    0    0 -0.15859397284E+02 -0.35486146358E+00  0.23094207271E+02  0.28017651906E+02  0.00000000000E+00 0. -1.
<mgrwt>
<rscale>  0 0.93149172E+02</rscale>
<asrwt>0</asrwt>
<pdfrwt beam="1">  1        1 0.35802682E-01 0.93149172E+02</pdfrwt>
<pdfrwt beam="2">  1       -1 0.14340217E-02 0.93149172E+02</pdfrwt>
<totfact> 0.11515704E+05</totfact>
</mgrwt>
</event>
<event>
 7    1  0.3565607E-009  0.9154464E+02  0.7818608E-02  0.1299154E+00
          1   -1    0    0  501    0  0.00000000000E+00  0.00000000000E+00  0.47659555408E+02  0.47659555675E+02  0.50400000000E-02 0. -1.
         -1   -1    0    0    0  501 -0.00000000000E+00 -0.00000000000E+00 -0.43959816051E+02  0.43959816340E+02  0.50400000000E-02 0.  1.
         23    2    1    2    0    0  0.00000000000E+00  0.00000000000E+00  0.36997393573E+01  0.91619372015E+02  0.91544640788E+02 0.  0.
    9000005    2    3    3    0    0 -0.58413491172E+01  0.32359722210E+02 -0.28195283399E+02  0.45809269880E+02  0.14907790581E+02 0.  0.
         22    1    3    3    0    0  0.58413491172E+01 -0.32359722210E+02  0.31895022756E+02  0.45810102135E+02  0.00000000000E+00 0. -1.
         22    1    4    4    0    0 -0.27933347430E+01  0.73313811611E+01 -0.15960035317E+02  0.17784110774E+02  0.00000000000E+00 0. -1.
         22    1    4    4    0    0 -0.30480143742E+01  0.25028341049E+02 -0.12235248082E+02  0.28025159106E+02  0.00000000000E+00 0. -1.
<mgrwt>
<rscale>  0 0.91544641E+02</rscale>
<asrwt>0</asrwt>
<pdfrwt beam="1">  1        1 0.73322393E-02 0.91544641E+02</pdfrwt>
<pdfrwt beam="2">  1       -1 0.67630487E-02 0.91544641E+02</pdfrwt>
<totfact> 0.92046315E+04</totfact>
</mgrwt>
</event>
<event>
 7    1  0.3565607E-009  0.8807825E+02  0.7818608E-02  0.1307573E+00
         -1   -1    0    0    0  501 -0.00000000000E+00  0.00000000000E+00  0.17226328310E+02  0.17226329047E+02  0.50400000000E-02 0.  1.
          1   -1    0    0  501    0  0.00000000000E+00 -0.00000000000E+00 -0.11258605143E+03  0.11258605155E+03  0.50400000000E-02 0. -1.
         23    2    1    2    0    0  0.00000000000E+00  0.00000000000E+00 -0.95359723123E+02  0.12981238059E+03  0.88078245674E+02 0.  0.
    9000005    2    3    3    0    0 -0.39064530280E+02  0.17836137388E+02 -0.56677049509E+02  0.72015195879E+02  0.11390134918E+02 0.  0.
         22    1    3    3    0    0  0.39064530280E+02 -0.17836137388E+02 -0.38682673614E+02  0.57797184714E+02  0.00000000000E+00 0.  1.
         22    1    4    4    0    0 -0.54579346075E+01  0.69763146580E+01 -0.84732871782E+01  0.12257838798E+02  0.00000000000E+00 0.  1.
         22    1    4    4    0    0 -0.33606595673E+02  0.10859822730E+02 -0.48203762331E+02  0.59757357081E+02  0.00000000000E+00 0.  1.
<mgrwt>
<rscale>  0 0.88078246E+02</rscale>
<asrwt>0</asrwt>
<pdfrwt beam="2">  1        1 0.17320931E-01 0.88078246E+02</pdfrwt>
<pdfrwt beam="1">  1       -1 0.26502045E-02 0.88078246E+02</pdfrwt>
<totfact> 0.11702295E+05</totfact>
</mgrwt>
</event>
<event>
 7    1  0.3565607E-009  0.9301632E+02  0.7818608E-02  0.1295707E+00
          1   -1    0    0  501    0  0.00000000000E+00  0.00000000000E+00  0.64662392775E+02  0.64662392971E+02  0.50400000000E-02 0. -1.
         -1   -1    0    0    0  501 -0.00000000000E+00 -0.00000000000E+00 -0.33450805742E+02  0.33450806121E+02  0.50400000000E-02 0.  1.
         23    2    1    2    0    0  0.00000000000E+00  0.00000000000E+00  0.31211587033E+02  0.98113199092E+02  0.93016324755E+02 0.  0.
    9000005    2    3    3    0    0  0.13102004750E+02 -0.40141099190E+02  0.34257371360E+02  0.55778258738E+02  0.12436891999E+02 0.  0.
         22    1    3    3    0    0 -0.13102004750E+02  0.40141099190E+02 -0.30457843272E+01  0.42334940355E+02  0.00000000000E+00 0.  1.
         22    1    4    4    0    0  0.39902296193E+01 -0.17099746138E+02  0.68947198680E+01  0.18864262839E+02  0.00000000000E+00 0. -1.
         22    1    4    4    0    0  0.91117751308E+01 -0.23041353052E+02  0.27362651492E+02  0.36913995899E+02  0.00000000000E+00 0. -1.
<mgrwt>
<rscale>  0 0.93016325E+02</rscale>
<asrwt>0</asrwt>
<pdfrwt beam="1">  1        1 0.99480604E-02 0.93016325E+02</pdfrwt>
<pdfrwt beam="2">  1       -1 0.51462779E-02 0.93016325E+02</pdfrwt>
<totfact> 0.92222123E+04</totfact>
</mgrwt>
</event>
<event>
 7    1  0.3565607E-009  0.8990903E+02  0.7818608E-02  0.1303072E+00
          1   -1    0    0  501    0  0.00000000000E+00  0.00000000000E+00  0.12297775110E+03  0.12297775120E+03  0.50400000000E-02 0. -1.
         -1   -1    0    0    0  501 -0.00000000000E+00 -0.00000000000E+00 -0.16433122593E+02  0.16433123365E+02  0.50400000000E-02 0.  1.
         23    2    1    2    0    0  0.00000000000E+00  0.00000000000E+00  0.10654462851E+03  0.13941087457E+03  0.89909032272E+02 0.  0.
    9000005    2    3    3    0    0  0.27935248937E+02 -0.13148882776E+02  0.39942362703E+01  0.32313469374E+02  0.86565078510E+01 0.  0.
         22    1    3    3    0    0 -0.27935248937E+02  0.13148882776E+02  0.10255039224E+03  0.10709740519E+03  0.00000000000E+00 0. -1.
         22    1    4    4    0    0  0.51037166965E+01 -0.51117646951E+01 -0.17584877439E+01  0.74344025692E+01  0.00000000000E+00 0. -1.
         22    1    4    4    0    0  0.22831532240E+02 -0.80371180812E+01  0.57527240142E+01  0.24879066805E+02  0.00000000000E+00 0. -1.
<mgrwt>
<rscale>  0 0.89909032E+02</rscale>
<asrwt>0</asrwt>
<pdfrwt beam="1">  1        1 0.18919654E-01 0.89909032E+02</pdfrwt>
<pdfrwt beam="2">  1       -1 0.25281728E-02 0.89909032E+02</pdfrwt>
<totfact> 0.11237940E+05</totfact>
</mgrwt>
</event>
<event>
 7    1  0.3565607E-009  0.8590551E+02  0.7818608E-02  0.1313081E+00
          1   -1    0    0  501    0  0.00000000000E+00  0.00000000000E+00  0.63150180134E+03  0.63150180136E+03  0.50400000000E-02 0. -1.
         -1   -1    0    0    0  501 -0.00000000000E+00 -0.00000000000E+00 -0.29215084169E+01  0.29215127643E+01  0.50400000000E-02 0.  1.
         23    2    1    2    0    0  0.00000000000E+00  0.00000000000E+00  0.62858029293E+03  0.63442331413E+03  0.85905511193E+02 0.  0.
    9000005    2    3    3    0    0 -0.37682987404E+02 -0.42967167455E+01  0.45776457774E+03  0.45944766477E+03  0.10260541514E+02 0.  0.
         22    1    3    3    0    0  0.37682987404E+02  0.42967167455E+01  0.17081571519E+03  0.17497564936E+03  0.00000000000E+00 0. -1.
         22    1    4    4    0    0 -0.24545542172E+00 -0.11405052013E+01  0.53473642405E+01  0.54731439593E+01  0.00000000000E+00 0.  1.
         22    1    4    4    0    0 -0.37437531982E+02 -0.31562115442E+01  0.45241721350E+03  0.45397452081E+03  0.00000000000E+00 0.  1.
<mgrwt>
<rscale>  0 0.85905511E+02</rscale>
<asrwt>0</asrwt>
<pdfrwt beam="1">  1        1 0.97154202E-01 0.85905511E+02</pdfrwt>
<pdfrwt beam="2">  1       -1 0.44946280E-03 0.85905511E+02</pdfrwt>
<totfact> 0.16609364E+05</totfact>
</mgrwt>
</event>
<event>
 6    1  0.3565607E-009  0.6715937E+03  0.7818608E-02  0.9767083E-01
         -1   -1    0    0    0  501 -0.00000000000E+00  0.00000000000E+00  0.31239396516E+03  0.31239396520E+03  0.50400000000E-02 0.  1.
          1   -1    0    0  501    0  0.00000000000E+00 -0.00000000000E+00 -0.36095294779E+03  0.36095294782E+03  0.50400000000E-02 0. -1.
    9000005    2    1    2    0    0  0.19678561311E+03 -0.46516713700E+02  0.24449149326E+03  0.31730342748E+03  0.41222126410E+01 0.  0.
         22    1    1    2    0    0 -0.19678561311E+03  0.46516713700E+02 -0.29305047588E+03  0.35604348554E+03  0.00000000000E+00 0. -1.
         22    1    3    3    0    0  0.16300232652E+03 -0.38739102901E+02  0.20495980825E+03  0.26472438411E+03  0.00000000000E+00 0.  1.
         22    1    3    3    0    0  0.33783286589E+02 -0.77776107983E+01  0.39531685006E+02  0.52579043371E+02  0.00000000000E+00 0.  1.
<mgrwt>
<rscale>  0 0.67159369E+03</rscale>
<asrwt>0</asrwt>
<pdfrwt beam="2">  1        1 0.55531223E-01 0.67159369E+03</pdfrwt>
<pdfrwt beam="1">  1       -1 0.48060610E-01 0.67159369E+03</pdfrwt>
<totfact> 0.30160855E+02</totfact>
</mgrwt>
</event>
<event>
 7    1  0.3565607E-009  0.8982359E+02  0.7818608E-02  0.1303279E+00
          1   -1    0    0  501    0  0.00000000000E+00  0.00000000000E+00  0.68017186580E+03  0.68017186582E+03  0.50400000000E-02 0. -1.
         -1   -1    0    0    0  501 -0.00000000000E+00 -0.00000000000E+00 -0.29655269639E+01  0.29655312467E+01  0.50400000000E-02 0.  1.
         23    2    1    2    0    0 -0.35527136788E-14  0.00000000000E+00  0.67720633884E+03  0.68313739707E+03  0.89823593278E+02 0.  0.
    9000005    2    3    3    0    0  0.16024850857E+02 -0.92232076123E+01  0.64929276115E+03  0.64965559271E+03  0.11376996726E+02 0.  0.
         22    1    3    3    0    0 -0.16024850857E+02  0.92232076123E+01  0.27913577688E+02  0.33481804357E+02  0.00000000000E+00 0.  1.
         22    1    4    4    0    0 -0.58364192297E+00 -0.24454362811E+01  0.18400330210E+03  0.18402047707E+03  0.00000000000E+00 0. -1.
         22    1    4    4    0    0  0.16608492780E+02 -0.67777713311E+01  0.46528945905E+03  0.46563511564E+03  0.00000000000E+00 0. -1.
<mgrwt>
<rscale>  0 0.89823593E+02</rscale>
<asrwt>0</asrwt>
<pdfrwt beam="1">  1        1 0.10464184E+00 0.89823593E+02</pdfrwt>
<pdfrwt beam="2">  1       -1 0.45623518E-03 0.89823593E+02</pdfrwt>
<totfact> 0.14791478E+05</totfact>
</mgrwt>
</event>
<event>
 7    1  0.3565607E-009  0.9399068E+02  0.7818608E-02  0.1293466E+00
         -1   -1    0    0    0  501 -0.00000000000E+00  0.00000000000E+00  0.63877709702E+01  0.63877729585E+01  0.50400000000E-02 0.  1.
          1   -1    0    0  501    0  0.00000000000E+00 -0.00000000000E+00 -0.34574837182E+03  0.34574837186E+03  0.50400000000E-02 0. -1.
         23    2    1    2    0    0 -0.17763568394E-14  0.00000000000E+00 -0.33936060085E+03  0.35213614482E+03  0.93990675475E+02 0.  0.
    9000005    2    3    3    0    0  0.15774719636E+02 -0.21692794369E+01 -0.33494690937E+03  0.33561257906E+03  0.13886092803E+02 0.  0.
         22    1    3    3    0    0 -0.15774719636E+02  0.21692794369E+01 -0.44136914819E+01  0.16523565758E+02  0.00000000000E+00 0.  1.
         22    1    4    4    0    0  0.12009997558E+02  0.43575520332E+01 -0.16265479916E+03  0.16315579056E+03  0.00000000000E+00 0.  1.
         22    1    4    4    0    0  0.37647220779E+01 -0.65268314701E+01 -0.17229211021E+03  0.17245678850E+03  0.00000000000E+00 0.  1.
<mgrwt>
<rscale>  0 0.93990675E+02</rscale>
<asrwt>0</asrwt>
<pdfrwt beam="2">  1        1 0.53192043E-01 0.93990675E+02</pdfrwt>
<pdfrwt beam="1">  1       -1 0.98273442E-03 0.93990675E+02</pdfrwt>
<totfact> 0.12130837E+05</totfact>
</mgrwt>
</event>
<event>
 6    1  0.4831222E-009  0.1914688E+03  0.7818608E-02  0.1157143E+00
         -1   -1    0    0    0  501 -0.00000000000E+00  0.00000000000E+00  0.34457494602E+03  0.34457494606E+03  0.50400000000E-02 0.  1.
          1   -1    0    0  501    0  0.00000000000E+00 -0.00000000000E+00 -0.26598202959E+02  0.26598203436E+02  0.50400000000E-02 0. -1.
    9000005    2    1    2    0    0  0.81743292241E+02  0.27411057339E+02  0.23854089043E+03  0.25394095863E+03  0.12285038579E+02 0.  0.
         22    1    1    2    0    0 -0.81743292241E+02 -0.27411057339E+02  0.79435852631E+02  0.11723219086E+03  0.00000000000E+00 0. -1.
         22    1    3    3    0    0  0.71828568311E+01  0.23430891212E+00  0.28958380404E+02  0.29836825042E+02  0.00000000000E+00 0.  1.
         22    1    3    3    0    0  0.74560435410E+02  0.27176748427E+02  0.20958251003E+03  0.22410413359E+03  0.00000000000E+00 0.  1.
<mgrwt>
<rscale>  0 0.19146879E+03</rscale>
<asrwt>0</asrwt>
<pdfrwt beam="2">  1        1 0.40920316E-02 0.19146879E+03</pdfrwt>
<pdfrwt beam="1">  1       -1 0.53011525E-01 0.19146879E+03</pdfrwt>
<totfact> 0.78783655E+03</totfact>
</mgrwt>
</event>
<event>
 7    1  0.3565607E-009  0.9209325E+02  0.7818608E-02  0.1297860E+00
          1   -1    0    0  501    0  0.00000000000E+00  0.00000000000E+00  0.18099591598E+03  0.18099591605E+03  0.50400000000E-02 0. -1.
         -1   -1    0    0    0  501 -0.00000000000E+00 -0.00000000000E+00 -0.11714582799E+02  0.11714583883E+02  0.50400000000E-02 0.  1.
         23    2    1    2    0    0  0.35527136788E-14  0.00000000000E+00  0.16928133318E+03  0.19271049993E+03  0.92093251765E+02 0.  0.
    9000005    2    3    3    0    0  0.26687320119E+02 -0.12776807847E+02  0.16175137883E+02  0.36771515350E+02  0.14664562105E+02 0.  0.
         22    1    3    3    0    0 -0.26687320119E+02  0.12776807847E+02  0.15310619529E+03  0.15593898458E+03  0.00000000000E+00 0. -1.
         22    1    4    4    0    0  0.39787327994E+01  0.28012376634E+01  0.52144100064E+01  0.71321328402E+01  0.00000000000E+00 0. -1.
         22    1    4    4    0    0  0.22708587320E+02 -0.15578045511E+02  0.10960727876E+02  0.29639382510E+02  0.00000000000E+00 0. -1.
<mgrwt>
<rscale>  0 0.92093252E+02</rscale>
<asrwt>0</asrwt>
<pdfrwt beam="1">  1        1 0.27845524E-01 0.92093252E+02</pdfrwt>
<pdfrwt beam="2">  1       -1 0.18022437E-02 0.92093252E+02</pdfrwt>
<totfact> 0.11306512E+05</totfact>
</mgrwt>
</event>
<event>
 7    1  0.3565607E-009  0.9055704E+02  0.7818608E-02  0.1301508E+00
         -1   -1    0    0    0  501 -0.00000000000E+00  0.00000000000E+00  0.74532398966E+01  0.74532416006E+01  0.50400000000E-02 0.  1.
          1   -1    0    0  501    0  0.00000000000E+00 -0.00000000000E+00 -0.27506749261E+03  0.27506749265E+03  0.50400000000E-02 0. -1.
         23    2    1    2    0    0 -0.88817841970E-15  0.00000000000E+00 -0.26761425271E+03  0.28252073425E+03  0.90557037438E+02 0.  0.
    9000005    2    3    3    0    0  0.76994167411E+01 -0.43172498905E+02 -0.15286049193E+03  0.15967297769E+03  0.14352147260E+02 0.  0.
         22    1    3    3    0    0 -0.76994167411E+01  0.43172498905E+02 -0.11475376078E+03  0.12284775656E+03  0.00000000000E+00 0. -1.
         22    1    4    4    0    0 -0.27837496422E+01 -0.19496853035E+02 -0.54051652012E+02  0.57527885635E+02  0.00000000000E+00 0. -1.
         22    1    4    4    0    0  0.10483166383E+02 -0.23675645870E+02 -0.98808839920E+02  0.10214509206E+03  0.00000000000E+00 0. -1.
<mgrwt>
<rscale>  0 0.90557037E+02</rscale>
<asrwt>0</asrwt>
<pdfrwt beam="2">  1        1 0.42318068E-01 0.90557037E+02</pdfrwt>
<pdfrwt beam="1">  1       -1 0.11466526E-02 0.90557037E+02</pdfrwt>
<totfact> 0.12830967E+05</totfact>
</mgrwt>
</event>
<event>
 7    1  0.3565607E-009  0.9051690E+02  0.7818608E-02  0.1301605E+00
          1   -1    0    0  501    0  0.00000000000E+00  0.00000000000E+00  0.47138723445E+01  0.47138750389E+01  0.50400000000E-02 0. -1.
         -1   -1    0    0    0  501 -0.00000000000E+00 -0.00000000000E+00 -0.43453163059E+03  0.43453163062E+03  0.50400000000E-02 0.  1.
         23    2    1    2    0    0  0.00000000000E+00 -0.44408920985E-15 -0.42981775824E+03  0.43924550566E+03  0.90516898630E+02 0.  0.
    9000005    2    3    3    0    0 -0.43360748036E+02 -0.38507423448E+01 -0.17892827503E+03  0.18460749696E+03  0.13023733754E+02 0.  0.
         22    1    3    3    0    0  0.43360748036E+02  0.38507423448E+01 -0.25088948322E+03  0.25463800870E+03  0.00000000000E+00 0. -1.
         22    1    4    4    0    0 -0.11938034579E+02 -0.55372540558E+01 -0.69941592655E+02  0.71168843149E+02  0.00000000000E+00 0.  1.
         22    1    4    4    0    0 -0.31422713456E+02  0.16865117110E+01 -0.10898668237E+03  0.11343865381E+03  0.00000000000E+00 0.  1.
<mgrwt>
<rscale>  0 0.90516899E+02</rscale>
<asrwt>0</asrwt>
<pdfrwt beam="1">  1        1 0.72521168E-03 0.90516899E+02</pdfrwt>
<pdfrwt beam="2">  1       -1 0.66850989E-01 0.90516899E+02</pdfrwt>
<totfact> 0.52007069E+04</totfact>
</mgrwt>
</event>
<event>
 7    1  0.3565607E-009  0.9005791E+02  0.7818608E-02  0.1302712E+00
          1   -1    0    0  501    0  0.00000000000E+00  0.00000000000E+00  0.43934791333E+03  0.43934791335E+03  0.50400000000E-02 0. -1.
         -1   -1    0    0    0  501 -0.00000000000E+00 -0.00000000000E+00 -0.46150353703E+01  0.46150381223E+01  0.50400000000E-02 0.  1.
         23    2    1    2    0    0  0.00000000000E+00 -0.35527136788E-14  0.43473287796E+03  0.44396295148E+03  0.90057909751E+02 0.  0.
    9000005    2    3    3    0    0  0.93667769021E+01  0.25179334635E+02  0.39489984295E+03  0.39591707674E+03  0.90945194426E+01 0.  0.
         22    1    3    3    0    0 -0.93667769021E+01 -0.25179334635E+02  0.39833035001E+02  0.48045874741E+02  0.00000000000E+00 0.  1.
         22    1    4    4    0    0  0.40100790825E+01  0.16401377443E+02  0.29676167896E+03  0.29724161891E+03  0.00000000000E+00 0.  1.
         22    1    4    4    0    0  0.53566978196E+01  0.87779571924E+01  0.98138163996E+02  0.98675457822E+02  0.00000000000E+00 0.  1.
<mgrwt>
<rscale>  0 0.90057910E+02</rscale>
<asrwt>0</asrwt>
<pdfrwt beam="1">  1        1 0.67592019E-01 0.90057910E+02</pdfrwt>
<pdfrwt beam="2">  1       -1 0.71000532E-03 0.90057910E+02</pdfrwt>
<totfact> 0.14143432E+05</totfact>
</mgrwt>
</event>
<event>
 7    1  0.3565607E-009  0.8845791E+02  0.7818608E-02  0.1306630E+00
          1   -1    0    0  501    0  0.00000000000E+00  0.00000000000E+00  0.75521901696E+02  0.75521901864E+02  0.50400000000E-02 0. -1.
         -1   -1    0    0    0  501 -0.00000000000E+00 -0.00000000000E+00 -0.25902425948E+02  0.25902426438E+02  0.50400000000E-02 0.  1.
         23    2    1    2    0    0 -0.35527136788E-14 -0.35527136788E-14  0.49619475748E+02  0.10142432830E+03  0.88457910885E+02 0.  0.
    9000005    2    3    3    0    0  0.27198853280E+02  0.21891086840E+02 -0.58008768444E+01  0.35923085687E+02  0.61498463691E+01 0.  0.
         22    1    3    3    0    0 -0.27198853280E+02 -0.21891086840E+02  0.55420352592E+02  0.65501242616E+02  0.00000000000E+00 0. -1.
         22    1    4    4    0    0  0.25046866941E+02  0.21516537281E+02 -0.43601973438E+01  0.33306429425E+02  0.00000000000E+00 0. -1.
         22    1    4    4    0    0  0.21519863383E+01  0.37454955872E+00 -0.14406795006E+01  0.26166562624E+01  0.00000000000E+00 0. -1.
<mgrwt>
<rscale>  0 0.88457911E+02</rscale>
<asrwt>0</asrwt>
<pdfrwt beam="1">  1        1 0.11618754E-01 0.88457911E+02</pdfrwt>
<pdfrwt beam="2">  1       -1 0.39849887E-02 0.88457911E+02</pdfrwt>
<totfact> 0.10847871E+05</totfact>
</mgrwt>
</event>
<event>
 7    1  0.3565607E-009  0.9479106E+02  0.7818608E-02  0.1291647E+00
         -1   -1    0    0    0  501 -0.00000000000E+00  0.00000000000E+00  0.34201907835E+02  0.34201908206E+02  0.50400000000E-02 0. -1.
          1   -1    0    0  501    0  0.00000000000E+00 -0.00000000000E+00 -0.65678676495E+02  0.65678676688E+02  0.50400000000E-02 0.  1.
         23    2    1    2    0    0  0.00000000000E+00  0.00000000000E+00 -0.31476768660E+02  0.99880584894E+02  0.94791055873E+02 0.  0.
    9000005    2    3    3    0    0  0.10704805064E+02 -0.52957923212E+01  0.31923109241E+02  0.35365603800E+02  0.94341274517E+01 0.  0.
         22    1    3    3    0    0 -0.10704805064E+02  0.52957923212E+01 -0.63399877900E+02  0.64514981094E+02  0.00000000000E+00 0.  1.
         22    1    4    4    0    0  0.76726235359E+01  0.11914024986E+00  0.10143510106E+02  0.12719046489E+02  0.00000000000E+00 0.  1.
         22    1    4    4    0    0  0.30321815285E+01 -0.54149325711E+01  0.21779599135E+02  0.22646557311E+02  0.00000000000E+00 0.  1.
<mgrwt>
<rscale>  0 0.94791056E+02</rscale>
<asrwt>0</asrwt>
<pdfrwt beam="2">  1        1 0.10104412E-01 0.94791056E+02</pdfrwt>
<pdfrwt beam="1">  1       -1 0.52618320E-02 0.94791056E+02</pdfrwt>
<totfact> 0.87715792E+04</totfact>
</mgrwt>
</event>
<event>
 7    1  0.3565607E-009  0.8859708E+02  0.7818608E-02  0.1306285E+00
          1   -1    0    0  501    0  0.00000000000E+00  0.00000000000E+00  0.61536588247E+01  0.61536608887E+01  0.50400000000E-02 0. -1.
         -1   -1    0    0    0  501 -0.00000000000E+00 -0.00000000000E+00 -0.31889324085E+03  0.31889324089E+03  0.50400000000E-02 0.  1.
         23    2    1    2    0    0  0.00000000000E+00  0.00000000000E+00 -0.31273958202E+03  0.32504690177E+03  0.88597077776E+02 0.  0.
    9000005    2    3    3    0    0 -0.12037003473E+02  0.98765753752E+01 -0.30815749414E+03  0.30881632190E+03  0.12807938268E+02 0.  0.
         22    1    3    3    0    0  0.12037003473E+02 -0.98765753752E+01 -0.45820878812E+01  0.16230579876E+02  0.00000000000E+00 0. -1.
         22    1    4    4    0    0 -0.71610894835E-01  0.80286547379E+01 -0.11540478050E+03  0.11568374037E+03  0.00000000000E+00 0.  1.
         22    1    4    4    0    0 -0.11965392578E+02  0.18479206374E+01 -0.19275271364E+03  0.19313258153E+03  0.00000000000E+00 0.  1.
<mgrwt>
<rscale>  0 0.88597078E+02</rscale>
<asrwt>0</asrwt>
<pdfrwt beam="1">  1        1 0.94671715E-03 0.88597078E+02</pdfrwt>
<pdfrwt beam="2">  1       -1 0.49060486E-01 0.88597078E+02</pdfrwt>
<totfact> 0.63712898E+04</totfact>
</mgrwt>
</event>
<event>
 7    1  0.3565607E-009  0.8363525E+02  0.7818608E-02  0.1319041E+00
         -1   -1    0    0    0  501 -0.00000000000E+00  0.00000000000E+00  0.11016451336E+03  0.11016451347E+03  0.50400000000E-02 0.  1.
          1   -1    0    0  501    0  0.00000000000E+00 -0.00000000000E+00 -0.15873658769E+02  0.15873659570E+02  0.50400000000E-02 0. -1.
         23    2    1    2    0    0  0.00000000000E+00  0.00000000000E+00  0.94290854588E+02  0.12603817304E+03  0.83635254557E+02 0.  0.
    9000005    2    3    3    0    0 -0.24448611824E+02 -0.16964926326E+02  0.90100595986E+02  0.95986523961E+02  0.14482818781E+02 0.  0.
         22    1    3    3    0    0  0.24448611824E+02  0.16964926326E+02  0.41902586028E+01  0.30051649081E+02  0.00000000000E+00 0. -1.
         22    1    4    4    0    0 -0.10317899664E+02 -0.14240019917E+02  0.61568180006E+02  0.64030289785E+02  0.00000000000E+00 0. -1.
         22    1    4    4    0    0 -0.14130712160E+02 -0.27249064086E+01  0.28532415980E+02  0.31956234176E+02  0.00000000000E+00 0. -1.
<mgrwt>
<rscale>  0 0.83635255E+02</rscale>
<asrwt>0</asrwt>
<pdfrwt beam="2">  1        1 0.24421014E-02 0.83635255E+02</pdfrwt>
<pdfrwt beam="1">  1       -1 0.16948387E-01 0.83635255E+02</pdfrwt>
<totfact> 0.99766260E+04</totfact>
</mgrwt>
</event>
<event>
 7    1  0.3565607E-009  0.8763761E+02  0.7818608E-02  0.1308676E+00
         -1   -1    0    0    0  501 -0.00000000000E+00  0.00000000000E+00  0.14644988730E+02  0.14644989598E+02  0.50400000000E-02 0.  1.
          1   -1    0    0  501    0  0.00000000000E+00 -0.00000000000E+00 -0.13110884080E+03  0.13110884089E+03  0.50400000000E-02 0. -1.
         23    2    1    2    0    0  0.00000000000E+00 -0.27755575616E-16 -0.11646385207E+03  0.14575383049E+03  0.87637607594E+02 0.  0.
    9000005    2    3    3    0    0 -0.34583814759E+02 -0.17220966230E+00 -0.10262507877E+03  0.10850357484E+03  0.67118597977E+01 0.  0.
         22    1    3    3    0    0  0.34583814759E+02  0.17220966230E+00 -0.13838773297E+02  0.37250255648E+02  0.00000000000E+00 0.  1.
         22    1    4    4    0    0 -0.22268778522E+02 -0.25259288956E+01 -0.72132111339E+02  0.75533570682E+02  0.00000000000E+00 0.  1.
         22    1    4    4    0    0 -0.12315036237E+02  0.23537192333E+01 -0.30492967432E+02  0.32970004163E+02  0.00000000000E+00 0.  1.
<mgrwt>
<rscale>  0 0.87637608E+02</rscale>
<asrwt>0</asrwt>
<pdfrwt beam="2">  1        1 0.20170590E-01 0.87637608E+02</pdfrwt>
<pdfrwt beam="1">  1       -1 0.22530754E-02 0.87637608E+02</pdfrwt>
<totfact> 0.12176736E+05</totfact>
</mgrwt>
</event>
<event>
 7    1  0.3565607E-009  0.9060655E+02  0.7818608E-02  0.1301389E+00
          1   -1    0    0  501    0  0.00000000000E+00  0.00000000000E+00  0.12934786243E+03  0.12934786253E+03  0.50400000000E-02 0. -1.
         -1   -1    0    0    0  501 -0.00000000000E+00 -0.00000000000E+00 -0.15867185100E+02  0.15867185900E+02  0.50400000000E-02 0.  1.
         23    2    1    2    0    0  0.17763568394E-14 -0.35527136788E-14  0.11348067733E+03  0.14521504843E+03  0.90606545917E+02 0.  0.
    9000005    2    3    3    0    0 -0.83365124365E+01  0.24216379212E+02  0.11627859952E+03  0.11945153100E+03  0.95929709248E+01 0.  0.
         22    1    3    3    0    0  0.83365124365E+01 -0.24216379212E+02 -0.27979221856E+01  0.25763517428E+02  0.00000000000E+00 0.  1.
         22    1    4    4    0    0 -0.10033221517E+02  0.16048861380E+02  0.84781889774E+02  0.86868868527E+02  0.00000000000E+00 0. -1.
         22    1    4    4    0    0  0.16967090808E+01  0.81675178318E+01  0.31496709745E+02  0.32582662476E+02  0.00000000000E+00 0. -1.
<mgrwt>
<rscale>  0 0.90606546E+02</rscale>
<asrwt>0</asrwt>
<pdfrwt beam="1">  1        1 0.19899670E-01 0.90606546E+02</pdfrwt>
<pdfrwt beam="2">  1       -1 0.24411056E-02 0.90606546E+02</pdfrwt>
<totfact> 0.11103806E+05</totfact>
</mgrwt>
</event>
<event>
 7    1  0.3565607E-009  0.9128728E+02  0.7818608E-02  0.1299764E+00
         -1   -1    0    0    0  501 -0.00000000000E+00  0.00000000000E+00  0.13815361191E+03  0.13815361200E+03  0.50400000000E-02 0.  1.
          1   -1    0    0  501    0  0.00000000000E+00 -0.00000000000E+00 -0.15079893828E+02  0.15079894671E+02  0.50400000000E-02 0. -1.
         23    2    1    2    0    0 -0.35527136788E-14 -0.35527136788E-14  0.12307371808E+03  0.15323350667E+03  0.91287279971E+02 0.  0.
    9000005    2    3    3    0    0  0.21155038157E+02  0.31502481813E+02  0.23336796667E+02  0.46521766489E+02  0.13406217916E+02 0.  0.
         22    1    3    3    0    0 -0.21155038157E+02 -0.31502481813E+02  0.99736921410E+02  0.10671174018E+03  0.00000000000E+00 0.  1.
         22    1    4    4    0    0  0.62577943594E+01  0.13201103290E+01  0.54662571214E+01  0.84132424453E+01  0.00000000000E+00 0.  1.
         22    1    4    4    0    0  0.14897243797E+02  0.30182371483E+02  0.17870539545E+02  0.38108524043E+02  0.00000000000E+00 0.  1.
<mgrwt>
<rscale>  0 0.91287280E+02</rscale>
<asrwt>0</asrwt>
<pdfrwt beam="2">  1        1 0.23199837E-02 0.91287280E+02</pdfrwt>
<pdfrwt beam="1">  1       -1 0.21254402E-01 0.91287280E+02</pdfrwt>
<totfact> 0.75966710E+04</totfact>
</mgrwt>
</event>
<event>
 7    1  0.3565607E-009  0.9244788E+02  0.7818608E-02  0.1297030E+00
         -1   -1    0    0    0  501 -0.00000000000E+00  0.00000000000E+00  0.76127963865E+02  0.76127964031E+02  0.50400000000E-02 0.  1.
          1   -1    0    0  501    0  0.00000000000E+00 -0.00000000000E+00 -0.28066592402E+02  0.28066592855E+02  0.50400000000E-02 0. -1.
         23    2    1    2    0    0  0.35527136788E-14 -0.17763568394E-14  0.48061371462E+02  0.10419455689E+03  0.92447878602E+02 0.  0.
    9000005    2    3    3    0    0 -0.16252129659E+02  0.63328303752E+01 -0.22901762959E+02  0.31119233378E+02  0.11818607379E+02 0.  0.
         22    1    3    3    0    0  0.16252129659E+02 -0.63328303752E+01  0.70963134421E+02  0.73075323509E+02  0.00000000000E+00 0.  1.
         22    1    4    4    0    0 -0.91713336271E+01  0.57817862724E+01 -0.21206993858E+02  0.23817619560E+02  0.00000000000E+00 0.  1.
         22    1    4    4    0    0 -0.70807960317E+01  0.55104410278E+00 -0.16947691012E+01  0.73016138183E+01  0.00000000000E+00 0.  1.
<mgrwt>
<rscale>  0 0.92447879E+02</rscale>
<asrwt>0</asrwt>
<pdfrwt beam="2">  1        1 0.43179374E-02 0.92447879E+02</pdfrwt>
<pdfrwt beam="1">  1       -1 0.11711994E-01 0.92447879E+02</pdfrwt>
<totfact> 0.82386274E+04</totfact>
</mgrwt>
</event>
<event>
 7    1  0.3565607E-009  0.9620150E+02  0.7818608E-02  0.1288493E+00
         -1   -1    0    0    0  501 -0.00000000000E+00  0.00000000000E+00  0.17173563191E+02  0.17173563931E+02  0.50400000000E-02 0.  1.
          1   -1    0    0  501    0  0.00000000000E+00 -0.00000000000E+00 -0.13472346427E+03  0.13472346436E+03  0.50400000000E-02 0. -1.
         23    2    1    2    0    0  0.00000000000E+00  0.71054273576E-14 -0.11754990108E+03  0.15189702829E+03  0.96201496668E+02 0.  0.
    9000005    2    3    3    0    0  0.15669990810E+02  0.41719167507E+02 -0.33428113669E+02  0.56699797944E+02  0.10554181824E+02 0.  0.
         22    1    3    3    0    0 -0.15669990810E+02 -0.41719167507E+02 -0.84121787410E+02  0.95197230350E+02  0.00000000000E+00 0. -1.
         22    1    4    4    0    0 -0.92954171850E-01  0.10048609306E+02 -0.45406734984E+01  0.11027280049E+02  0.00000000000E+00 0. -1.
         22    1    4    4    0    0  0.15762944982E+02  0.31670558201E+02 -0.28887440170E+02  0.45672517895E+02  0.00000000000E+00 0. -1.
<mgrwt>
<rscale>  0 0.96201497E+02</rscale>
<asrwt>0</asrwt>
<pdfrwt beam="2">  1        1 0.20726686E-01 0.96201497E+02</pdfrwt>
<pdfrwt beam="1">  1       -1 0.26420868E-02 0.96201497E+02</pdfrwt>
<totfact> 0.95060847E+04</totfact>
</mgrwt>
</event>
<event>
 7    1  0.3596621E-009  0.9148511E+02  0.7818608E-02  0.1299295E+00
          1   -1    0    0  501    0  0.00000000000E+00  0.00000000000E+00  0.16155724554E+03  0.16155724562E+03  0.50400000000E-02 0. -1.
         -1   -1    0    0    0  501 -0.00000000000E+00 -0.00000000000E+00 -0.12951331054E+02  0.12951332035E+02  0.50400000000E-02 0.  1.
         23    2    1    2    0    0  0.00000000000E+00  0.00000000000E+00  0.14860591449E+03  0.17450857766E+03  0.91485112750E+02 0.  0.
    9000005    2    3    3    0    0  0.11694329965E+02  0.11429807853E+02  0.15539307340E+03  0.15680368040E+03  0.13152530724E+02 0.  0.
         22    1    3    3    0    0 -0.11694329965E+02 -0.11429807853E+02 -0.67871589112E+01  0.17704897260E+02  0.00000000000E+00 0.  1.
         22    1    4    4    0    0  0.16339765524E+01  0.10652642461E+02  0.71932884110E+02  0.72735744220E+02  0.00000000000E+00 0. -1.
         22    1    4    4    0    0  0.10060353413E+02  0.77716539263E+00  0.83460189291E+02  0.84067936178E+02  0.00000000000E+00 0. -1.
<mgrwt>
<rscale>  0 0.91485113E+02</rscale>
<asrwt>0</asrwt>
<pdfrwt beam="1">  1        1 0.24854960E-01 0.91485113E+02</pdfrwt>
<pdfrwt beam="2">  1       -1 0.19925126E-02 0.91485113E+02</pdfrwt>
<totfact> 0.11265529E+05</totfact>
</mgrwt>
</event>
<event>
 7    1  0.3565607E-009  0.8906410E+02  0.7818608E-02  0.1305134E+00
         -1   -1    0    0    0  501 -0.00000000000E+00  0.00000000000E+00  0.12204075274E+02  0.12204076315E+02  0.50400000000E-02 0.  1.
          1   -1    0    0  501    0  0.00000000000E+00 -0.00000000000E+00 -0.16249516309E+03  0.16249516316E+03  0.50400000000E-02 0. -1.
         23    2    1    2    0    0  0.71054273576E-14  0.00000000000E+00 -0.15029108781E+03  0.17469923948E+03  0.89064096014E+02 0.  0.
    9000005    2    3    3    0    0 -0.37996690649E+02  0.10988930314E+02 -0.11232823383E+03  0.11987512643E+03  0.13707980522E+02 0.  0.
         22    1    3    3    0    0  0.37996690649E+02 -0.10988930314E+02 -0.37962853978E+02  0.54824113051E+02  0.00000000000E+00 0. -1.
         22    1    4    4    0    0 -0.24095988471E+02  0.10313878773E+01 -0.75765545592E+02  0.79511623805E+02  0.00000000000E+00 0.  1.
         22    1    4    4    0    0 -0.13900702178E+02  0.99575424367E+01 -0.36562688242E+02  0.40363502622E+02  0.00000000000E+00 0.  1.
<mgrwt>
<rscale>  0 0.89064096E+02</rscale>
<asrwt>0</asrwt>
<pdfrwt beam="2">  1        1 0.24999254E-01 0.89064096E+02</pdfrwt>
<pdfrwt beam="1">  1       -1 0.18775502E-02 0.89064096E+02</pdfrwt>
<totfact> 0.12120861E+05</totfact>
</mgrwt>
</event>
<event>
 6    1  0.3565607E-009  0.1664732E+03  0.7818608E-02  0.1181576E+00
         -1   -1    0    0    0  501 -0.00000000000E+00  0.00000000000E+00  0.12026301668E+02  0.12026302724E+02  0.50400000000E-02 0.  1.
          1   -1    0    0  501    0  0.00000000000E+00 -0.00000000000E+00 -0.57609818403E+03  0.57609818405E+03  0.50400000000E-02 0. -1.
    9000005    2    1    2    0    0  0.77388444009E+02 -0.86472071301E+01 -0.18716403274E+03  0.20325662300E+03  0.14803181640E+02 0.  0.
         22    1    1    2    0    0 -0.77388444009E+02  0.86472071301E+01 -0.37690784963E+03  0.38486786378E+03  0.00000000000E+00 0. -1.
         22    1    3    3    0    0  0.12091024029E-02 -0.74786933440E+00 -0.66898702025E+01  0.67315431611E+01  0.00000000000E+00 0.  1.
         22    1    3    3    0    0  0.77387234907E+02 -0.78993377957E+01 -0.18047416253E+03  0.19652507984E+03  0.00000000000E+00 0.  1.
<mgrwt>
<rscale>  0 0.16647319E+03</rscale>
<asrwt>0</asrwt>
<pdfrwt beam="2">  1        1 0.88630469E-01 0.16647319E+03</pdfrwt>
<pdfrwt beam="1">  1       -1 0.18502008E-02 0.16647319E+03</pdfrwt>
<totfact> 0.27354113E+04</totfact>
</mgrwt>
</event>
<event>
 7    1  0.3565607E-009  0.9192723E+02  0.7818608E-02  0.1298251E+00
         -1   -1    0    0    0  501 -0.00000000000E+00  0.00000000000E+00  0.25160107981E+02  0.25160108486E+02  0.50400000000E-02 0.  1.
          1   -1    0    0  501    0  0.00000000000E+00 -0.00000000000E+00 -0.83968402153E+02  0.83968402304E+02  0.50400000000E-02 0. -1.
         23    2    1    2    0    0  0.00000000000E+00  0.00000000000E+00 -0.58808294172E+02  0.10912851079E+03  0.91927234288E+02 0.  0.
    9000005    2    3    3    0    0 -0.40916318516E+02  0.16182344193E+02 -0.43211851272E+02  0.62445940000E+02  0.98090747609E+01 0.  0.
         22    1    3    3    0    0  0.40916318516E+02 -0.16182344193E+02 -0.15596442901E+02  0.46682570790E+02  0.00000000000E+00 0.  1.
         22    1    4    4    0    0 -0.30724795008E+02  0.15880432694E+02 -0.30203278625E+02  0.45917743962E+02  0.00000000000E+00 0. -1.
         22    1    4    4    0    0 -0.10191523508E+02  0.30191149840E+00 -0.13008572647E+02  0.16528196038E+02  0.00000000000E+00 0. -1.
<mgrwt>
<rscale>  0 0.91927234E+02</rscale>
<asrwt>0</asrwt>
<pdfrwt beam="2">  1        1 0.12918216E-01 0.91927234E+02</pdfrwt>
<pdfrwt beam="1">  1       -1 0.38707859E-02 0.91927234E+02</pdfrwt>
<totfact> 0.99262514E+04</totfact>
</mgrwt>
</event>
<event>
 7    1  0.3565607E-009  0.9435718E+02  0.7818608E-02  0.1292630E+00
          1   -1    0    0  501    0  0.00000000000E+00  0.00000000000E+00  0.11399549368E+03  0.11399549379E+03  0.50400000000E-02 0.  1.
         -1   -1    0    0    0  501 -0.00000000000E+00 -0.00000000000E+00 -0.19525501411E+02  0.19525502062E+02  0.50400000000E-02 0. -1.
         23    2    1    2    0    0  0.00000000000E+00  0.00000000000E+00  0.94469992270E+02  0.13352099585E+03  0.94357177228E+02 0.  0.
    9000005    2    3    3    0    0 -0.32905689947E+01  0.25879815771E+02 -0.56832972107E+01  0.30025710442E+02  0.13735017718E+02 0.  0.
         22    1    3    3    0    0  0.32905689947E+01 -0.25879815771E+02  0.10015328948E+03  0.10349528541E+03  0.00000000000E+00 0.  1.
         22    1    4    4    0    0 -0.59404251447E+01  0.24319843959E+02 -0.78811357029E+01  0.26246061820E+02  0.00000000000E+00 0. -1.
         22    1    4    4    0    0  0.26498561500E+01  0.15599718122E+01  0.21978384922E+01  0.37796486223E+01  0.00000000000E+00 0. -1.
<mgrwt>
<rscale>  0 0.94357177E+02</rscale>
<asrwt>0</asrwt>
<pdfrwt beam="1">  1        1 0.17537768E-01 0.94357177E+02</pdfrwt>
<pdfrwt beam="2">  1       -1 0.30039234E-02 0.94357177E+02</pdfrwt>
<totfact> 0.97266018E+04</totfact>
</mgrwt>
</event>
<event>
 7    1  0.3565607E-009  0.9052720E+02  0.7818608E-02  0.1301580E+00
         -1   -1    0    0    0  501 -0.00000000000E+00  0.00000000000E+00  0.62967594997E+01  0.62967615167E+01  0.50400000000E-02 0.  1.
          1   -1    0    0  501    0  0.00000000000E+00 -0.00000000000E+00 -0.32537264221E+03  0.32537264225E+03  0.50400000000E-02 0. -1.
         23    2    1    2    0    0  0.88817841970E-15  0.00000000000E+00 -0.31907588271E+03  0.33166940376E+03  0.90527202911E+02 0.  0.
    9000005    2    3    3    0    0  0.62713899227E+01  0.24046740026E+02 -0.29742333022E+03  0.29870868371E+03  0.12192798062E+02 0.  0.
         22    1    3    3    0    0 -0.62713899227E+01 -0.24046740026E+02 -0.21652552486E+02  0.32960720056E+02  0.00000000000E+00 0.  1.
         22    1    4    4    0    0 -0.22417916863E+01  0.72235042081E+01 -0.50097531009E+02  0.50665247026E+02  0.00000000000E+00 0. -1.
         22    1    4    4    0    0  0.85131816089E+01  0.16823235818E+02 -0.24732579921E+03  0.24804343668E+03  0.00000000000E+00 0. -1.
<mgrwt>
<rscale>  0 0.90527203E+02</rscale>
<asrwt>0</asrwt>
<pdfrwt beam="2">  1        1 0.50057316E-01 0.90527203E+02</pdfrwt>
<pdfrwt beam="1">  1       -1 0.96873265E-03 0.90527203E+02</pdfrwt>
<totfact> 0.13259128E+05</totfact>
</mgrwt>
</event>
<event>
 7    1  0.3565607E-009  0.9155840E+02  0.7818608E-02  0.1299121E+00
         -1   -1    0    0    0  501 -0.00000000000E+00  0.00000000000E+00  0.97373792328E+03  0.97373792329E+03  0.50400000000E-02 0.  1.
          1   -1    0    0  501    0  0.00000000000E+00 -0.00000000000E+00 -0.21522549020E+01  0.21522608032E+01  0.50400000000E-02 0. -1.
         23    2    1    2    0    0 -0.17763568394E-14  0.00000000000E+00  0.97158566837E+03  0.97589018409E+03  0.91558398948E+02 0.  0.
    9000005    2    3    3    0    0 -0.13405672813E+02 -0.36083171261E+02  0.73900421926E+03  0.74014490252E+03  0.14336433651E+02 0.  0.
         22    1    3    3    0    0  0.13405672813E+02  0.36083171261E+02  0.23258144911E+03  0.23574528157E+03  0.00000000000E+00 0. -1.
         22    1    4    4    0    0 -0.92030400467E+01 -0.12917117739E+02  0.20054015026E+03  0.20116634844E+03  0.00000000000E+00 0.  1.
         22    1    4    4    0    0 -0.42026327658E+01 -0.23166053522E+02  0.53846406900E+03  0.53897855408E+03  0.00000000000E+00 0.  1.
<mgrwt>
<rscale>  0 0.91558399E+02</rscale>
<asrwt>0</asrwt>
<pdfrwt beam="2">  1        1 0.33111638E-03 0.91558399E+02</pdfrwt>
<pdfrwt beam="1">  1       -1 0.14980593E+00 0.91558399E+02</pdfrwt>
<totfact> 0.26183652E+04</totfact>
</mgrwt>
</event>
<event>
 7    1  0.3565607E-009  0.9384241E+02  0.7818608E-02  0.1293805E+00
          1   -1    0    0  501    0  0.00000000000E+00  0.00000000000E+00  0.26304956710E+03  0.26304956715E+03  0.50400000000E-02 0. -1.
         -1   -1    0    0    0  501 -0.00000000000E+00 -0.00000000000E+00 -0.83695232348E+01  0.83695247523E+01  0.50400000000E-02 0.  1.
         23    2    1    2    0    0 -0.71054273576E-14  0.00000000000E+00  0.25468004387E+03  0.27141909190E+03  0.93842414212E+02 0.  0.
    9000005    2    3    3    0    0  0.38724767130E+02 -0.13641589195E+02  0.70536609766E+02  0.82754031895E+02  0.13679032588E+02 0.  0.
         22    1    3    3    0    0 -0.38724767130E+02  0.13641589195E+02  0.18414343410E+03  0.18866506001E+03  0.00000000000E+00 0. -1.
         22    1    4    4    0    0  0.38041959750E+02 -0.96776692844E+01  0.64035655935E+02  0.75109341732E+02  0.00000000000E+00 0. -1.
         22    1    4    4    0    0  0.68280738063E+00 -0.39639199108E+01  0.65009538306E+01  0.76446901628E+01  0.00000000000E+00 0. -1.
<mgrwt>
<rscale>  0 0.93842414E+02</rscale>
<asrwt>0</asrwt>
<pdfrwt beam="1">  1        1 0.40469161E-01 0.93842414E+02</pdfrwt>
<pdfrwt beam="2">  1       -1 0.12876192E-02 0.93842414E+02</pdfrwt>
<totfact> 0.11563762E+05</totfact>
</mgrwt>
</event>
<event>
 7    1  0.3565607E-009  0.9230093E+02  0.7818608E-02  0.1297373E+00
          1   -1    0    0  501    0  0.00000000000E+00  0.00000000000E+00  0.19215428376E+02  0.19215429037E+02  0.50400000000E-02 0. -1.
         -1   -1    0    0    0  501 -0.00000000000E+00 -0.00000000000E+00 -0.11084141464E+03  0.11084141476E+03  0.50400000000E-02 0.  1.
         23    2    1    2    0    0  0.00000000000E+00  0.00000000000E+00 -0.91625986266E+02  0.13005684379E+03  0.92300927722E+02 0.  0.
    9000005    2    3    3    0    0 -0.16145963769E+02 -0.41351571924E+02 -0.33420539412E+02  0.56854940197E+02  0.12037737480E+02 0.  0.
         22    1    3    3    0    0  0.16145963769E+02  0.41351571924E+02 -0.58205446855E+02  0.73201903597E+02  0.00000000000E+00 0.  1.
         22    1    4    4    0    0 -0.26109251046E+01 -0.44467970772E+01  0.15495634729E+00  0.51589674953E+01  0.00000000000E+00 0. -1.
         22    1    4    4    0    0 -0.13535038664E+02 -0.36904774847E+02 -0.33575495759E+02  0.51695972702E+02  0.00000000000E+00 0. -1.
<mgrwt>
<rscale>  0 0.92300928E+02</rscale>
<asrwt>0</asrwt>
<pdfrwt beam="1">  1        1 0.29562199E-02 0.92300928E+02</pdfrwt>
<pdfrwt beam="2">  1       -1 0.17052525E-01 0.92300928E+02</pdfrwt>
<totfact> 0.77301499E+04</totfact>
</mgrwt>
</event>
<event>
 7    1  0.3565607E-009  0.9324068E+02  0.7818608E-02  0.1295188E+00
         -1   -1    0    0    0  501 -0.00000000000E+00  0.00000000000E+00  0.55491108889E+02  0.55491109118E+02  0.50400000000E-02 0.  1.
          1   -1    0    0  501    0  0.00000000000E+00 -0.00000000000E+00 -0.39167644981E+02  0.39167645305E+02  0.50400000000E-02 0. -1.
         23    2    1    2    0    0  0.00000000000E+00  0.00000000000E+00  0.16323463908E+02  0.94658754423E+02  0.93240679507E+02 0.  0.
    9000005    2    3    3    0    0  0.13462892915E+02 -0.19982143065E+02 -0.31583269286E+02  0.41034220744E+02  0.10284398192E+02 0.  0.
         22    1    3    3    0    0 -0.13462892915E+02  0.19982143065E+02  0.47906733193E+02  0.53624533680E+02  0.00000000000E+00 0.  1.
         22    1    4    4    0    0  0.42874501034E+01 -0.10637775380E+01 -0.98474437219E+01  0.10792867964E+02  0.00000000000E+00 0.  1.
         22    1    4    4    0    0  0.91754428114E+01 -0.18918365526E+02 -0.21735825564E+02  0.30241352779E+02  0.00000000000E+00 0.  1.
<mgrwt>
<rscale>  0 0.93240680E+02</rscale>
<asrwt>0</asrwt>
<pdfrwt beam="2">  1        1 0.60257916E-02 0.93240680E+02</pdfrwt>
<pdfrwt beam="1">  1       -1 0.85370936E-02 0.93240680E+02</pdfrwt>
<totfact> 0.84815547E+04</totfact>
</mgrwt>
</event>
<event>
 7    1  0.3565607E-009  0.9159551E+02  0.7818608E-02  0.1299033E+00
          1   -1    0    0  501    0  0.00000000000E+00  0.00000000000E+00  0.55318691764E+02  0.55318691994E+02  0.50400000000E-02 0. -1.
         -1   -1    0    0    0  501 -0.00000000000E+00 -0.00000000000E+00 -0.37915471325E+02  0.37915471660E+02  0.50400000000E-02 0.  1.
         23    2    1    2    0    0  0.00000000000E+00  0.00000000000E+00  0.17403220439E+02  0.93234163654E+02  0.91595508572E+02 0.  0.
    9000005    2    3    3    0    0 -0.23996006102E+02  0.22891802341E+01 -0.29206741225E+02  0.40760006383E+02  0.15076330202E+02 0.  0.
         22    1    3    3    0    0  0.23996006102E+02 -0.22891802341E+01  0.46609961664E+02  0.52474157271E+02  0.00000000000E+00 0. -1.
         22    1    4    4    0    0 -0.14986175894E+02  0.38509975060E+01 -0.74775606012E+01  0.17185155288E+02  0.00000000000E+00 0.  1.
         22    1    4    4    0    0 -0.90098302078E+01 -0.15618172720E+01 -0.21729180624E+02  0.23574851095E+02  0.00000000000E+00 0.  1.
<mgrwt>
<rscale>  0 0.91595509E+02</rscale>
<asrwt>0</asrwt>
<pdfrwt beam="1">  1        1 0.85105680E-02 0.91595509E+02</pdfrwt>
<pdfrwt beam="2">  1       -1 0.58331495E-02 0.91595509E+02</pdfrwt>
<totfact> 0.93990219E+04</totfact>
</mgrwt>
</event>
<event>
 7    1  0.3565607E-009  0.9263129E+02  0.7818608E-02  0.1296602E+00
          1   -1    0    0  501    0  0.00000000000E+00  0.00000000000E+00  0.21589568489E+03  0.21589568495E+03  0.50400000000E-02 0. -1.
         -1   -1    0    0    0  501 -0.00000000000E+00 -0.00000000000E+00 -0.99359965978E+01  0.99359978761E+01  0.50400000000E-02 0.  1.
         23    2    1    2    0    0  0.00000000000E+00  0.88817841970E-15  0.20595968829E+03  0.22583168282E+03  0.92631289347E+02 0.  0.
    9000005    2    3    3    0    0  0.20389113155E+02  0.74925027368E+01  0.20268738159E+03  0.20386439979E+03  0.25817270006E+01 0.  0.
         22    1    3    3    0    0 -0.20389113155E+02 -0.74925027368E+01  0.32723066971E+01  0.21967283028E+02  0.00000000000E+00 0.  1.
         22    1    4    4    0    0  0.16281431984E+02  0.64691900809E+01  0.15400330237E+03  0.15499662122E+03  0.00000000000E+00 0. -1.
         22    1    4    4    0    0  0.41076811709E+01  0.10233126560E+01  0.48684079222E+02  0.48867778577E+02  0.00000000000E+00 0. -1.
<mgrwt>
<rscale>  0 0.92631289E+02</rscale>
<asrwt>0</asrwt>
<pdfrwt beam="1">  1        1 0.33214720E-01 0.92631289E+02</pdfrwt>
<pdfrwt beam="2">  1       -1 0.15286150E-02 0.92631289E+02</pdfrwt>
<totfact> 0.11518558E+05</totfact>
</mgrwt>
</event>
<event>
 7    1  0.3565607E-009  0.9080317E+02  0.7818608E-02  0.1300918E+00
          1   -1    0    0  501    0  0.00000000000E+00  0.00000000000E+00  0.16640401001E+03  0.16640401009E+03  0.50400000000E-02 0. -1.
         -1   -1    0    0    0  501 -0.00000000000E+00 -0.00000000000E+00 -0.12387345767E+02  0.12387346793E+02  0.50400000000E-02 0.  1.
         23    2    1    2    0    0  0.00000000000E+00  0.00000000000E+00  0.15401666424E+03  0.17879135688E+03  0.90803174119E+02 0.  0.
    9000005    2    3    3    0    0 -0.21217344752E+02 -0.38221579145E+02  0.96192837406E+02  0.10630232474E+03  0.11664366498E+02 0.  0.
         22    1    3    3    0    0  0.21217344752E+02  0.38221579145E+02  0.57823826837E+02  0.72489032142E+02  0.00000000000E+00 0. -1.
         22    1    4    4    0    0 -0.68407098759E+01 -0.55369850217E+01  0.27645873929E+02  0.29012891274E+02  0.00000000000E+00 0.  1.
         22    1    4    4    0    0 -0.14376634876E+02 -0.32684594123E+02  0.68546963477E+02  0.77289433464E+02  0.00000000000E+00 0.  1.
<mgrwt>
<rscale>  0 0.90803174E+02</rscale>
<asrwt>0</asrwt>
<pdfrwt beam="1">  1        1 0.25600616E-01 0.90803174E+02</pdfrwt>
<pdfrwt beam="2">  1       -1 0.19057457E-02 0.90803174E+02</pdfrwt>
<totfact> 0.11558525E+05</totfact>
</mgrwt>
</event>
<event>
 7    1  0.3565607E-009  0.9219540E+02  0.7818608E-02  0.1297621E+00
         -1   -1    0    0    0  501 -0.00000000000E+00  0.00000000000E+00  0.10337675340E+03  0.10337675352E+03  0.50400000000E-02 0.  1.
          1   -1    0    0  501    0  0.00000000000E+00 -0.00000000000E+00 -0.20555857888E+02  0.20555858506E+02  0.50400000000E-02 0. -1.
         23    2    1    2    0    0  0.35527136788E-14  0.35527136788E-14  0.82820895514E+02  0.12393261203E+03  0.92195398969E+02 0.  0.
    9000005    2    3    3    0    0 -0.26830106744E+02 -0.17619411451E+02 -0.21903043339E+01  0.33063462220E+02  0.76221265481E+01 0.  0.
         22    1    3    3    0    0  0.26830106744E+02  0.17619411451E+02  0.85011199848E+02  0.90869149811E+02  0.00000000000E+00 0.  1.
         22    1    4    4    0    0 -0.36137791928E+01 -0.69076782436E+00 -0.22839210380E+01  0.43304567368E+01  0.00000000000E+00 0.  1.
         22    1    4    4    0    0 -0.23216327551E+02 -0.16928643627E+02  0.93616704086E-01  0.28733005483E+02  0.00000000000E+00 0.  1.
<mgrwt>
<rscale>  0 0.92195399E+02</rscale>
<asrwt>0</asrwt>
<pdfrwt beam="2">  1        1 0.31624397E-02 0.92195399E+02</pdfrwt>
<pdfrwt beam="1">  1       -1 0.15904116E-01 0.92195399E+02</pdfrwt>
<totfact> 0.78580489E+04</totfact>
</mgrwt>
</event>
<event>
 7    1  0.3565607E-009  0.9883001E+02  0.7818608E-02  0.1282776E+00
          1   -1    0    0  501    0  0.00000000000E+00  0.00000000000E+00  0.28351443825E+03  0.28351443830E+03  0.50400000000E-02 0. -1.
         -1   -1    0    0    0  501 -0.00000000000E+00 -0.00000000000E+00 -0.86127620823E+01  0.86127635569E+01  0.50400000000E-02 0.  1.
         23    2    1    2    0    0 -0.44408920985E-15  0.00000000000E+00  0.27490167617E+03  0.29212720185E+03  0.98830008105E+02 0.  0.
    9000005    2    3    3    0    0 -0.32682180364E+01  0.37863837109E+02  0.22978647596E+03  0.23313794266E+03  0.10350090159E+02 0.  0.
         22    1    3    3    0    0  0.32682180364E+01 -0.37863837109E+02  0.45115200215E+02  0.58989259194E+02  0.00000000000E+00 0.  1.
         22    1    4    4    0    0 -0.42956182006E+01  0.38073594789E+02  0.22487254777E+03  0.22811337904E+03  0.00000000000E+00 0.  1.
         22    1    4    4    0    0  0.10274001642E+01 -0.20975767921E+00  0.49139281844E+01  0.50245636211E+01  0.00000000000E+00 0.  1.
<mgrwt>
<rscale>  0 0.98830008E+02</rscale>
<asrwt>0</asrwt>
<pdfrwt beam="1">  1        1 0.43617606E-01 0.98830008E+02</pdfrwt>
<pdfrwt beam="2">  1       -1 0.13250404E-02 0.98830008E+02</pdfrwt>
<totfact> 0.10212454E+05</totfact>
</mgrwt>
</event>
<event>
 7    1  0.3565607E-009  0.7707792E+02  0.7818608E-02  0.1337555E+00
          1   -1    0    0  501    0  0.00000000000E+00  0.00000000000E+00  0.83611786323E+02  0.83611786475E+02  0.50400000000E-02 0. -1.
         -1   -1    0    0    0  501 -0.00000000000E+00 -0.00000000000E+00 -0.17763662126E+02  0.17763662841E+02  0.50400000000E-02 0.  1.
         23    2    1    2    0    0  0.00000000000E+00  0.00000000000E+00  0.65848124197E+02  0.10137544932E+03  0.77077923324E+02 0.  0.
    9000005    2    3    3    0    0 -0.18283648296E+02 -0.32595346574E+02  0.21502425111E+02  0.43381575152E+02  0.47810421103E+01 0.  0.
         22    1    3    3    0    0  0.18283648296E+02  0.32595346574E+02  0.44345699085E+02  0.57993874165E+02  0.00000000000E+00 0. -1.
         22    1    4    4    0    0 -0.13124517060E+02 -0.26836670923E+02  0.15973606061E+02  0.33876480704E+02  0.00000000000E+00 0. -1.
         22    1    4    4    0    0 -0.51591312365E+01 -0.57586756505E+01  0.55288190501E+01  0.95050944473E+01  0.00000000000E+00 0. -1.
<mgrwt>
<rscale>  0 0.77077923E+02</rscale>
<asrwt>0</asrwt>
<pdfrwt beam="1">  1        1 0.12863352E-01 0.77077923E+02</pdfrwt>
<pdfrwt beam="2">  1       -1 0.27328712E-02 0.77077923E+02</pdfrwt>
<totfact> 0.15991774E+05</totfact>
</mgrwt>
</event>
<event>
 7    1  0.3565607E-009  0.9108020E+02  0.7818608E-02  0.1300257E+00
         -1   -1    0    0    0  501 -0.00000000000E+00  0.00000000000E+00  0.76689095819E+01  0.76689112381E+01  0.50400000000E-02 0.  1.
          1   -1    0    0  501    0  0.00000000000E+00 -0.00000000000E+00 -0.27042962190E+03  0.27042962194E+03  0.50400000000E-02 0. -1.
         23    2    1    2    0    0  0.00000000000E+00  0.00000000000E+00 -0.26276071231E+03  0.27809853318E+03  0.91080196649E+02 0.  0.
    9000005    2    3    3    0    0 -0.16635021474E+02  0.40035445337E+02 -0.16620606338E+03  0.17225732640E+03  0.12983457566E+02 0.  0.
         22    1    3    3    0    0  0.16635021474E+02 -0.40035445337E+02 -0.96554648933E+02  0.10584120678E+03  0.00000000000E+00 0.  1.
         22    1    4    4    0    0 -0.68251137387E+01  0.43681401398E+01 -0.24653044251E+02  0.25950634225E+02  0.00000000000E+00 0.  1.
         22    1    4    4    0    0 -0.98099077348E+01  0.35667305197E+02 -0.14155301913E+03  0.14630669217E+03  0.00000000000E+00 0.  1.
<mgrwt>
<rscale>  0 0.91080197E+02</rscale>
<asrwt>0</asrwt>
<pdfrwt beam="2">  1        1 0.41604550E-01 0.91080197E+02</pdfrwt>
<pdfrwt beam="1">  1       -1 0.11798326E-02 0.91080197E+02</pdfrwt>
<totfact> 0.12593734E+05</totfact>
</mgrwt>
</event>
<event>
 7    1  0.3565607E-009  0.9179409E+02  0.7818608E-02  0.1298564E+00
         -1   -1    0    0    0  501 -0.00000000000E+00  0.00000000000E+00  0.14002090946E+02  0.14002091853E+02  0.50400000000E-02 0.  1.
          1   -1    0    0  501    0  0.00000000000E+00 -0.00000000000E+00 -0.15044458562E+03  0.15044458570E+03  0.50400000000E-02 0. -1.
         23    2    1    2    0    0  0.00000000000E+00  0.00000000000E+00 -0.13644249467E+03  0.16444667755E+03  0.91794092440E+02 0.  0.
    9000005    2    3    3    0    0  0.16594378568E+02  0.16061845744E+02  0.24140576652E+01  0.23682696312E+02  0.46568381332E+01 0.  0.
         22    1    3    3    0    0 -0.16594378568E+02 -0.16061845744E+02 -0.13885655234E+03  0.14076398124E+03  0.00000000000E+00 0. -1.
         22    1    4    4    0    0  0.16712633126E+02  0.16056956156E+02  0.20118013505E+01  0.23263389513E+02  0.00000000000E+00 0.  1.
         22    1    4    4    0    0 -0.11825455741E+00  0.48895888655E-02  0.40225631477E+00  0.41930679842E+00  0.00000000000E+00 0.  1.
<mgrwt>
<rscale>  0 0.91794092E+02</rscale>
<asrwt>0</asrwt>
<pdfrwt beam="2">  1        1 0.23145320E-01 0.91794092E+02</pdfrwt>
<pdfrwt beam="1">  1       -1 0.21541680E-02 0.91794092E+02</pdfrwt>
<totfact> 0.11016768E+05</totfact>
</mgrwt>
</event>
<event>
 7    1  0.3565607E-009  0.9063968E+02  0.7818608E-02  0.1301310E+00
         -1   -1    0    0    0  501 -0.00000000000E+00  0.00000000000E+00  0.65291096760E+01  0.65291116213E+01  0.50400000000E-02 0.  1.
          1   -1    0    0  501    0  0.00000000000E+00 -0.00000000000E+00 -0.31457390135E+03  0.31457390139E+03  0.50400000000E-02 0. -1.
         23    2    1    2    0    0 -0.17763568394E-14 -0.35527136788E-14 -0.30804479168E+03  0.32110301302E+03  0.90639678330E+02 0.  0.
    9000005    2    3    3    0    0  0.13178247107E+02  0.30576206625E+02 -0.26243089415E+03  0.26463002606E+03  0.71067487743E+01 0.  0.
         22    1    3    3    0    0 -0.13178247107E+02 -0.30576206625E+02 -0.45613897530E+02  0.56472986960E+02  0.00000000000E+00 0.  1.
         22    1    4    4    0    0  0.11691965952E+02  0.21773443642E+02 -0.20933994317E+03  0.21079373027E+03  0.00000000000E+00 0. -1.
         22    1    4    4    0    0  0.14862811545E+01  0.88027629836E+01 -0.53090950982E+02  0.53836295786E+02  0.00000000000E+00 0. -1.
<mgrwt>
<rscale>  0 0.90639678E+02</rscale>
<asrwt>0</asrwt>
<pdfrwt beam="2">  1        1 0.48395973E-01 0.90639678E+02</pdfrwt>
<pdfrwt beam="1">  1       -1 0.10044788E-02 0.90639678E+02</pdfrwt>
<totfact> 0.13132603E+05</totfact>
</mgrwt>
</event>
<event>
 7    1  0.3565607E-009  0.8891563E+02  0.7818608E-02  0.1305499E+00
         -1   -1    0    0    0  501 -0.00000000000E+00  0.00000000000E+00  0.11657802065E+02  0.11657803155E+02  0.50400000000E-02 0.  1.
          1   -1    0    0  501    0  0.00000000000E+00 -0.00000000000E+00 -0.16954285511E+03  0.16954285518E+03  0.50400000000E-02 0. -1.
         23    2    1    2    0    0  0.00000000000E+00  0.00000000000E+00 -0.15788505304E+03  0.18120065834E+03  0.88915626343E+02 0.  0.
    9000005    2    3    3    0    0 -0.36381460407E+02  0.59521022792E+01 -0.32076927781E+02  0.50102517372E+02  0.11058696499E+02 0.  0.
         22    1    3    3    0    0  0.36381460407E+02 -0.59521022792E+01 -0.12580812526E+03  0.13109814097E+03  0.00000000000E+00 0. -1.
         22    1    4    4    0    0 -0.19331283105E+02 -0.24397307978E+01 -0.16244608765E+02  0.25368052878E+02  0.00000000000E+00 0.  1.
         22    1    4    4    0    0 -0.17050177302E+02  0.83918330770E+01 -0.15832319015E+02  0.24734464494E+02  0.00000000000E+00 0.  1.
<mgrwt>
<rscale>  0 0.88915626E+02</rscale>
<asrwt>0</asrwt>
<pdfrwt beam="2">  1        1 0.26083514E-01 0.88915626E+02</pdfrwt>
<pdfrwt beam="1">  1       -1 0.17935082E-02 0.88915626E+02</pdfrwt>
<totfact> 0.12271825E+05</totfact>
</mgrwt>
</event>
<event>
 7    1  0.3565607E-009  0.9072204E+02  0.7818608E-02  0.1301113E+00
          1   -1    0    0  501    0  0.00000000000E+00  0.00000000000E+00  0.19325215080E+02  0.19325215737E+02  0.50400000000E-02 0. -1.
         -1   -1    0    0    0  501 -0.00000000000E+00 -0.00000000000E+00 -0.10647342935E+03  0.10647342947E+03  0.50400000000E-02 0.  1.
         23    2    1    2    0    0 -0.17763568394E-14 -0.17763568394E-14 -0.87148214272E+02  0.12579864521E+03  0.90722036384E+02 0.  0.
    9000005    2    3    3    0    0 -0.12093891409E+02 -0.93690824879E+01 -0.10211198649E+03  0.10439872943E+03  0.15433567492E+02 0.  0.
         22    1    3    3    0    0  0.12093891409E+02  0.93690824879E+01  0.14963772222E+02  0.21399915775E+02  0.00000000000E+00 0. -1.
         22    1    4    4    0    0  0.32264902057E+01  0.59357114206E+00 -0.11319391874E+02  0.11785210993E+02  0.00000000000E+00 0. -1.
         22    1    4    4    0    0 -0.15320381615E+02 -0.99626536300E+01 -0.90792594620E+02  0.92613518441E+02  0.00000000000E+00 0. -1.
<mgrwt>
<rscale>  0 0.90722036E+02</rscale>
<asrwt>0</asrwt>
<pdfrwt beam="1">  1        1 0.29731101E-02 0.90722036E+02</pdfrwt>
<pdfrwt beam="2">  1       -1 0.16380527E-01 0.90722036E+02</pdfrwt>
<totfact> 0.81455732E+04</totfact>
</mgrwt>
</event>
<event>
 7    1  0.3565607E-009  0.9102997E+02  0.7818608E-02  0.1300376E+00
         -1   -1    0    0    0  501 -0.00000000000E+00  0.00000000000E+00  0.29917161912E+02  0.29917162337E+02  0.50400000000E-02 0. -1.
          1   -1    0    0  501    0  0.00000000000E+00 -0.00000000000E+00 -0.69245002688E+02  0.69245002872E+02  0.50400000000E-02 0.  1.
         23    2    1    2    0    0  0.71054273576E-14  0.17763568394E-14 -0.39327840776E+02  0.99162165208E+02  0.91029972804E+02 0.  0.
    9000005    2    3    3    0    0  0.32672827096E+02  0.12486535363E+02 -0.50167408117E+02  0.62543544044E+02  0.13095757657E+02 0.  0.
         22    1    3    3    0    0 -0.32672827096E+02 -0.12486535363E+02  0.10839567341E+02  0.36618621164E+02  0.00000000000E+00 0. -1.
         22    1    4    4    0    0  0.68367370196E+01 -0.83402194099E+00 -0.39345899554E+01  0.79320592402E+01  0.00000000000E+00 0. -1.
         22    1    4    4    0    0  0.25836090076E+02  0.13320557304E+02 -0.46232818162E+02  0.54611484804E+02  0.00000000000E+00 0. -1.
<mgrwt>
<rscale>  0 0.91029973E+02</rscale>
<asrwt>0</asrwt>
<pdfrwt beam="2">  1        1 0.10653077E-01 0.91029973E+02</pdfrwt>
<pdfrwt beam="1">  1       -1 0.46026404E-02 0.91029973E+02</pdfrwt>
<totfact> 0.98941574E+04</totfact>
</mgrwt>
</event>
<event>
 7    1  0.3565607E-009  0.7783942E+02  0.7818608E-02  0.1335297E+00
          1   -1    0    0  501    0  0.00000000000E+00  0.00000000000E+00  0.21003822767E+02  0.21003823372E+02  0.50400000000E-02 0. -1.
         -1   -1    0    0    0  501 -0.00000000000E+00 -0.00000000000E+00 -0.72117529009E+02  0.72117529185E+02  0.50400000000E-02 0.  1.
         23    2    1    2    0    0 -0.17763568394E-14 -0.44408920985E-15 -0.51113706241E+02  0.93121352557E+02  0.77839420195E+02 0.  0.
    9000005    2    3    3    0    0 -0.15702234079E+02  0.16071407625E+01  0.15490280704E+02  0.24672582418E+02  0.10938211481E+02 0.  0.
         22    1    3    3    0    0  0.15702234079E+02 -0.16071407625E+01 -0.66603986945E+02  0.68448770138E+02  0.00000000000E+00 0.  1.
         22    1    4    4    0    0 -0.78316241755E+01  0.59189436125E+01  0.10619232144E+02  0.14461546323E+02  0.00000000000E+00 0. -1.
         22    1    4    4    0    0 -0.78706099037E+01 -0.43118028500E+01  0.48710485592E+01  0.10211036095E+02  0.00000000000E+00 0. -1.
<mgrwt>
<rscale>  0 0.77839420E+02</rscale>
<asrwt>0</asrwt>
<pdfrwt beam="1">  1        1 0.32313574E-02 0.77839420E+02</pdfrwt>
<pdfrwt beam="2">  1       -1 0.11095004E-01 0.77839420E+02</pdfrwt>
<totfact> 0.12881849E+05</totfact>
</mgrwt>
</event>
<event>
 7    1  0.3565607E-009  0.1070272E+03  0.7818608E-02  0.1266176E+00
         -1   -1    0    0    0  501 -0.00000000000E+00  0.00000000000E+00  0.13124325788E+02  0.13124326756E+02  0.50400000000E-02 0.  1.
          1   -1    0    0  501    0  0.00000000000E+00 -0.00000000000E+00 -0.21819823272E+03  0.21819823277E+03  0.50400000000E-02 0. -1.
         23    2    1    2    0    0  0.00000000000E+00  0.17763568394E-14 -0.20507390693E+03  0.23132255953E+03  0.10702718928E+03 0.  0.
    9000005    2    3    3    0    0 -0.45977130079E+02  0.90137101912E+01 -0.48125351108E+02  0.67530030288E+02  0.70080032613E+01 0.  0.
         22    1    3    3    0    0  0.45977130079E+02 -0.90137101912E+01 -0.15694855582E+03  0.16379252924E+03  0.00000000000E+00 0. -1.
         22    1    4    4    0    0 -0.20220263205E+01  0.52933304484E+00 -0.46282095196E+00  0.21407912432E+01  0.00000000000E+00 0. -1.
         22    1    4    4    0    0 -0.43955103759E+02  0.84843771463E+01 -0.47662530156E+02  0.65389239045E+02  0.00000000000E+00 0. -1.
<mgrwt>
<rscale>  0 0.10702719E+03</rscale>
<asrwt>0</asrwt>
<pdfrwt beam="2">  1        1 0.33568956E-01 0.10702719E+03</pdfrwt>
<pdfrwt beam="1">  1       -1 0.20191273E-02 0.10702719E+03</pdfrwt>
<totfact> 0.78096796E+04</totfact>
</mgrwt>
</event>
<event>
 7    1  0.3565607E-009  0.9225712E+02  0.7818608E-02  0.1297476E+00
         -1   -1    0    0    0  501 -0.00000000000E+00  0.00000000000E+00  0.32995227254E+02  0.32995227639E+02  0.50400000000E-02 0.  1.
          1   -1    0    0  501    0  0.00000000000E+00 -0.00000000000E+00 -0.64489443300E+02  0.64489443497E+02  0.50400000000E-02 0. -1.
         23    2    1    2    0    0  0.00000000000E+00  0.17763568394E-14 -0.31494216046E+02  0.97484671136E+02  0.92257116052E+02 0.  0.
    9000005    2    3    3    0    0  0.34990268225E+02  0.13862183613E+02 -0.42915555402E+02  0.58153691010E+02  0.11118807386E+02 0.  0.
         22    1    3    3    0    0 -0.34990268225E+02 -0.13862183613E+02  0.11421339355E+02  0.39330980126E+02  0.00000000000E+00 0.  1.
         22    1    4    4    0    0  0.26498681696E+02  0.13267433063E+02 -0.26929497902E+02  0.40042512021E+02  0.00000000000E+00 0. -1.
         22    1    4    4    0    0  0.84915865295E+01  0.59475055047E+00 -0.15986057500E+02  0.18111178990E+02  0.00000000000E+00 0. -1.
<mgrwt>
<rscale>  0 0.92257116E+02</rscale>
<asrwt>0</asrwt>
<pdfrwt beam="2">  1        1 0.99214529E-02 0.92257116E+02</pdfrwt>
<pdfrwt beam="1">  1       -1 0.50761888E-02 0.92257116E+02</pdfrwt>
<totfact> 0.94304556E+04</totfact>
</mgrwt>
</event>
<event>
 7    1  0.3565607E-009  0.8665347E+02  0.7818608E-02  0.1311164E+00
          1   -1    0    0  501    0  0.00000000000E+00  0.00000000000E+00  0.88564997736E+01  0.88565012077E+01  0.50400000000E-02 0. -1.
         -1   -1    0    0    0  501 -0.00000000000E+00 -0.00000000000E+00 -0.21195799790E+03  0.21195799796E+03  0.50400000000E-02 0.  1.
         23    2    1    2    0    0  0.17763568394E-14  0.00000000000E+00 -0.20310149813E+03  0.22081449917E+03  0.86653473684E+02 0.  0.
    9000005    2    3    3    0    0 -0.14765008239E+02 -0.38820532515E+02 -0.12161835056E+03  0.12935662608E+03  0.14733441686E+02 0.  0.
         22    1    3    3    0    0  0.14765008239E+02  0.38820532515E+02 -0.81483147565E+02  0.91457873090E+02  0.00000000000E+00 0. -1.
         22    1    4    4    0    0 -0.14802413114E+02 -0.40045335213E+02 -0.11602605344E+03  0.12363165202E+03  0.00000000000E+00 0. -1.
         22    1    4    4    0    0  0.37404875714E-01  0.12248026980E+01 -0.55922971259E+01  0.57249740539E+01  0.00000000000E+00 0. -1.
<mgrwt>
<rscale>  0 0.86653474E+02</rscale>
<asrwt>0</asrwt>
<pdfrwt beam="1">  1        1 0.13625387E-02 0.86653474E+02</pdfrwt>
<pdfrwt beam="2">  1       -1 0.32608919E-01 0.86653474E+02</pdfrwt>
<totfact> 0.77916431E+04</totfact>
</mgrwt>
</event>
<event>
 7    1  0.3565607E-009  0.8847463E+02  0.7818608E-02  0.1306588E+00
          1   -1    0    0  501    0  0.00000000000E+00  0.00000000000E+00  0.69507181550E+03  0.69507181552E+03  0.50400000000E-02 0. -1.
         -1   -1    0    0    0  501 -0.00000000000E+00 -0.00000000000E+00 -0.28154479469E+01  0.28154524580E+01  0.50400000000E-02 0.  1.
         23    2    1    2    0    0  0.35527136788E-14  0.00000000000E+00  0.69225636756E+03  0.69788726798E+03  0.88474631311E+02 0.  0.
    9000005    2    3    3    0    0  0.21804024758E+02  0.16229323264E+02  0.61863224920E+03  0.61940595025E+03  0.14800845311E+02 0.  0.
         22    1    3    3    0    0 -0.21804024758E+02 -0.16229323264E+02  0.73624118356E+02  0.78481317732E+02  0.00000000000E+00 0.  1.
         22    1    4    4    0    0  0.13015264422E+02  0.11450711939E+02  0.51507169399E+03  0.51536333384E+03  0.00000000000E+00 0. -1.
         22    1    4    4    0    0  0.87887603359E+01  0.47786113257E+01  0.10356055521E+03  0.10404261641E+03  0.00000000000E+00 0. -1.
<mgrwt>
<rscale>  0 0.88474631E+02</rscale>
<asrwt>0</asrwt>
<pdfrwt beam="1">  1        1 0.10693415E+00 0.88474631E+02</pdfrwt>
<pdfrwt beam="2">  1       -1 0.43314608E-03 0.88474631E+02</pdfrwt>
<totfact> 0.15393897E+05</totfact>
</mgrwt>
</event>
<event>
 7    1  0.3565607E-009  0.9235393E+02  0.7818608E-02  0.1297249E+00
         -1   -1    0    0    0  501 -0.00000000000E+00  0.00000000000E+00  0.45415950173E+03  0.45415950176E+03  0.50400000000E-02 0.  1.
          1   -1    0    0  501    0  0.00000000000E+00 -0.00000000000E+00 -0.46950718619E+01  0.46950745670E+01  0.50400000000E-02 0. -1.
         23    2    1    2    0    0 -0.35527136788E-14  0.00000000000E+00  0.44946442987E+03  0.45885457633E+03  0.92353930603E+02 0.  0.
    9000005    2    3    3    0    0  0.30816011979E+02 -0.32164036167E+02  0.25933670651E+03  0.26357861005E+03  0.15297206069E+02 0.  0.
         22    1    3    3    0    0 -0.30816011979E+02  0.32164036167E+02  0.19012772336E+03  0.19527596628E+03  0.00000000000E+00 0.  1.
         22    1    4    4    0    0  0.20658193673E+02 -0.12651607018E+02  0.16093808748E+03  0.16275101268E+03  0.00000000000E+00 0.  1.
         22    1    4    4    0    0  0.10157818306E+02 -0.19512429149E+02  0.98398619032E+02  0.10082759737E+03  0.00000000000E+00 0.  1.
<mgrwt>
<rscale>  0 0.92353931E+02</rscale>
<asrwt>0</asrwt>
<pdfrwt beam="2">  1        1 0.72231858E-03 0.92353931E+02</pdfrwt>
<pdfrwt beam="1">  1       -1 0.69870729E-01 0.92353931E+02</pdfrwt>
<totfact> 0.48143749E+04</totfact>
</mgrwt>
</event>
<event>
 7    1  0.3565607E-009  0.8934382E+02  0.7818608E-02  0.1304449E+00
         -1   -1    0    0    0  501 -0.00000000000E+00  0.00000000000E+00  0.23257375811E+01  0.23257430421E+01  0.50400000000E-02 0.  1.
          1   -1    0    0  501    0  0.00000000000E+00 -0.00000000000E+00 -0.85804059601E+03  0.85804059602E+03  0.50400000000E-02 0. -1.
         23    2    1    2    0    0  0.35527136788E-14  0.00000000000E+00 -0.85571485843E+03  0.86036633906E+03  0.89343821629E+02 0.  0.
    9000005    2    3    3    0    0 -0.20538629699E+02 -0.21778610294E+02 -0.74372473843E+03  0.74444425250E+03  0.13214210293E+02 0.  0.
         22    1    3    3    0    0  0.20538629699E+02  0.21778610294E+02 -0.11199012000E+03  0.11592208656E+03  0.00000000000E+00 0.  1.
         22    1    4    4    0    0 -0.43864291228E+01 -0.13814391667E+02 -0.37497089584E+03  0.37525091726E+03  0.00000000000E+00 0. -1.
         22    1    4    4    0    0 -0.16152200576E+02 -0.79642186278E+01 -0.36875384259E+03  0.36919333524E+03  0.00000000000E+00 0. -1.
<mgrwt>
<rscale>  0 0.89343822E+02</rscale>
<asrwt>0</asrwt>
<pdfrwt beam="2">  1        1 0.13200599E+00 0.89343822E+02</pdfrwt>
<pdfrwt beam="1">  1       -1 0.35780689E-03 0.89343822E+02</pdfrwt>
<totfact> 0.14792888E+05</totfact>
</mgrwt>
</event>
<event>
 7    1  0.3565607E-009  0.8974693E+02  0.7818608E-02  0.1303466E+00
          1   -1    0    0  501    0  0.00000000000E+00  0.00000000000E+00  0.10185759910E+03  0.10185759922E+03  0.50400000000E-02 0. -1.
         -1   -1    0    0    0  501 -0.00000000000E+00 -0.00000000000E+00 -0.19769049456E+02  0.19769050099E+02  0.50400000000E-02 0.  1.
         23    2    1    2    0    0  0.00000000000E+00  0.00000000000E+00  0.82088549641E+02  0.12162664932E+03  0.89746932219E+02 0.  0.
    9000005    2    3    3    0    0 -0.26054557208E+02  0.33674599484E+02  0.24427098150E+02  0.49949166178E+02  0.92421575442E+01 0.  0.
         22    1    3    3    0    0  0.26054557208E+02 -0.33674599484E+02  0.57661451491E+02  0.71677483143E+02  0.00000000000E+00 0.  1.
         22    1    4    4    0    0 -0.15022338040E+02  0.21309052030E+02  0.98238129383E+01  0.27861328742E+02  0.00000000000E+00 0. -1.
         22    1    4    4    0    0 -0.11032219168E+02  0.12365547454E+02  0.14603285212E+02  0.22087837436E+02  0.00000000000E+00 0. -1.
<mgrwt>
<rscale>  0 0.89746932E+02</rscale>
<asrwt>0</asrwt>
<pdfrwt beam="1">  1        1 0.15670400E-01 0.89746932E+02</pdfrwt>
<pdfrwt beam="2">  1       -1 0.30413922E-02 0.89746932E+02</pdfrwt>
<totfact> 0.10937519E+05</totfact>
</mgrwt>
</event>
<event>
 7    1  0.3565607E-009  0.8896931E+02  0.7818608E-02  0.1305367E+00
          1   -1    0    0  501    0  0.00000000000E+00  0.00000000000E+00  0.51435467585E+03  0.51435467587E+03  0.50400000000E-02 0. -1.
         -1   -1    0    0    0  501 -0.00000000000E+00 -0.00000000000E+00 -0.38473137184E+01  0.38473170196E+01  0.50400000000E-02 0.  1.
         23    2    1    2    0    0  0.00000000000E+00  0.00000000000E+00  0.51050736213E+03  0.51820199289E+03  0.88969312963E+02 0.  0.
    9000005    2    3    3    0    0  0.20044225297E+01  0.27609906806E+02  0.45764313965E+03  0.45852829113E+03  0.66802571054E+01 0.  0.
         22    1    3    3    0    0 -0.20044225297E+01 -0.27609906806E+02  0.52864222477E+02  0.59673701759E+02  0.00000000000E+00 0.  1.
         22    1    4    4    0    0  0.18619643676E+00  0.15049967913E+02  0.19571617687E+03  0.19629406026E+03  0.00000000000E+00 0.  1.
         22    1    4    4    0    0  0.18182260930E+01  0.12559938893E+02  0.26192696278E+03  0.26223423088E+03  0.00000000000E+00 0.  1.
<mgrwt>
<rscale>  0 0.88969313E+02</rscale>
<asrwt>0</asrwt>
<pdfrwt beam="1">  1        1 0.79131505E-01 0.88969313E+02</pdfrwt>
<pdfrwt beam="2">  1       -1 0.59189456E-03 0.88969313E+02</pdfrwt>
<totfact> 0.14907476E+05</totfact>
</mgrwt>
</event>
<event>
 7    1  0.3565607E-009  0.9208337E+02  0.7818608E-02  0.1297884E+00
         -1   -1    0    0    0  501 -0.00000000000E+00  0.00000000000E+00  0.33108351040E+01  0.33108389401E+01  0.50400000000E-02 0.  1.
          1   -1    0    0  501    0  0.00000000000E+00 -0.00000000000E+00 -0.64027216088E+03  0.64027216090E+03  0.50400000000E-02 0. -1.
         23    2    1    2    0    0  0.00000000000E+00  0.00000000000E+00 -0.63696132578E+03  0.64358299984E+03  0.92083370641E+02 0.  0.
    9000005    2    3    3    0    0  0.12879836025E+02 -0.11256625747E+02 -0.61676534274E+03  0.61711642602E+03  0.11857210996E+02 0.  0.
         22    1    3    3    0    0 -0.12879836025E+02  0.11256625747E+02 -0.20195983035E+02  0.26466573824E+02  0.00000000000E+00 0.  1.
         22    1    4    4    0    0  0.86805902804E+01 -0.93567301376E-01 -0.21804523969E+03  0.21821798265E+03  0.00000000000E+00 0. -1.
         22    1    4    4    0    0  0.41992457451E+01 -0.11163058445E+02 -0.39872010305E+03  0.39889844336E+03  0.00000000000E+00 0. -1.
<mgrwt>
<rscale>  0 0.92083371E+02</rscale>
<asrwt>0</asrwt>
<pdfrwt beam="2">  1        1 0.98503311E-01 0.92083371E+02</pdfrwt>
<pdfrwt beam="1">  1       -1 0.50936005E-03 0.92083371E+02</pdfrwt>
<totfact> 0.13834623E+05</totfact>
</mgrwt>
</event>
<event>
 7    1  0.3565607E-009  0.9053037E+02  0.7818608E-02  0.1301572E+00
          1   -1    0    0  501    0  0.00000000000E+00  0.00000000000E+00  0.64838922471E+01  0.64838942060E+01  0.50400000000E-02 0. -1.
         -1   -1    0    0    0  501 -0.00000000000E+00 -0.00000000000E+00 -0.31600413076E+03  0.31600413080E+03  0.50400000000E-02 0.  1.
         23    2    1    2    0    0  0.00000000000E+00  0.00000000000E+00 -0.30952023852E+03  0.32248802501E+03  0.90530371829E+02 0.  0.
    9000005    2    3    3    0    0  0.25400374843E+02 -0.34280437838E+02 -0.20200597415E+03  0.20681761175E+03  0.12115423179E+02 0.  0.
         22    1    3    3    0    0 -0.25400374843E+02  0.34280437838E+02 -0.10751426437E+03  0.11567041326E+03  0.00000000000E+00 0. -1.
         22    1    4    4    0    0  0.19821366981E+02 -0.23701040177E+02 -0.16674616271E+03  0.16958451778E+03  0.00000000000E+00 0. -1.
         22    1    4    4    0    0  0.55790078614E+01 -0.10579397661E+02 -0.35259811442E+02  0.37233093969E+02  0.00000000000E+00 0. -1.
<mgrwt>
<rscale>  0 0.90530372E+02</rscale>
<asrwt>0</asrwt>
<pdfrwt beam="1">  1        1 0.99752228E-03 0.90530372E+02</pdfrwt>
<pdfrwt beam="2">  1       -1 0.48616008E-01 0.90530372E+02</pdfrwt>
<totfact> 0.60447013E+04</totfact>
</mgrwt>
</event>
<event>
 7    1  0.3565607E-009  0.8259734E+02  0.7818608E-02  0.1321838E+00
          1   -1    0    0  501    0  0.00000000000E+00  0.00000000000E+00  0.39363554124E+02  0.39363554446E+02  0.50400000000E-02 0. -1.
         -1   -1    0    0    0  501 -0.00000000000E+00 -0.00000000000E+00 -0.43328914786E+02  0.43328915080E+02  0.50400000000E-02 0.  1.
         23    2    1    2    0    0  0.00000000000E+00  0.00000000000E+00 -0.39653606625E+01  0.82692469526E+02  0.82597339129E+02 0.  0.
    9000005    2    3    3    0    0 -0.18094694366E+02 -0.20687212472E+02  0.28424880928E+02  0.40212986545E+02  0.73301914693E+01 0.  0.
         22    1    3    3    0    0  0.18094694366E+02  0.20687212472E+02 -0.32390241591E+02  0.42479482982E+02  0.00000000000E+00 0.  1.
         22    1    4    4    0    0 -0.13323171969E+01  0.41579938978E+00  0.22245259533E+01  0.26261138518E+01  0.00000000000E+00 0. -1.
         22    1    4    4    0    0 -0.16762377169E+02 -0.21103011862E+02  0.26200354975E+02  0.37586872693E+02  0.00000000000E+00 0. -1.
<mgrwt>
<rscale>  0 0.82597339E+02</rscale>
<asrwt>0</asrwt>
<pdfrwt beam="1">  1        1 0.60559315E-02 0.82597339E+02</pdfrwt>
<pdfrwt beam="2">  1       -1 0.66659869E-02 0.82597339E+02</pdfrwt>
<totfact> 0.11929134E+05</totfact>
</mgrwt>
</event>
<event>
 7    1  0.3565607E-009  0.9115923E+02  0.7818608E-02  0.1300069E+00
          1   -1    0    0  501    0  0.00000000000E+00  0.00000000000E+00  0.17552778793E+03  0.17552778800E+03  0.50400000000E-02 0. -1.
         -1   -1    0    0    0  501 -0.00000000000E+00 -0.00000000000E+00 -0.11835738354E+02  0.11835739427E+02  0.50400000000E-02 0.  1.
         23    2    1    2    0    0 -0.88817841970E-15  0.00000000000E+00  0.16369204957E+03  0.18736352743E+03  0.91159225075E+02 0.  0.
    9000005    2    3    3    0    0 -0.56420325075E+01  0.42360620112E+02  0.11388400355E+03  0.12173505711E+03  0.48583123186E+01 0.  0.
         22    1    3    3    0    0  0.56420325075E+01 -0.42360620112E+02  0.49808046022E+02  0.65628470312E+02  0.00000000000E+00 0.  1.
         22    1    4    4    0    0 -0.59023698094E+01  0.30036073401E+02  0.77916873207E+02  0.83714053809E+02  0.00000000000E+00 0. -1.
         22    1    4    4    0    0  0.26033730192E+00  0.12324546711E+02  0.35967130345E+02  0.38021003306E+02  0.00000000000E+00 0. -1.
<mgrwt>
<rscale>  0 0.91159225E+02</rscale>
<asrwt>0</asrwt>
<pdfrwt beam="1">  1        1 0.27004275E-01 0.91159225E+02</pdfrwt>
<pdfrwt beam="2">  1       -1 0.18208829E-02 0.91159225E+02</pdfrwt>
<totfact> 0.11553119E+05</totfact>
</mgrwt>
</event>
<event>
 7    1  0.3565607E-009  0.8742461E+02  0.7818608E-02  0.1309211E+00
          1   -1    0    0  501    0  0.00000000000E+00  0.00000000000E+00  0.13466193472E+04  0.13466193473E+04  0.50400000000E-02 0. -1.
         -1   -1    0    0    0  501 -0.00000000000E+00 -0.00000000000E+00 -0.14189306978E+01  0.14189396487E+01  0.50400000000E-02 0.  1.
         23    2    1    2    0    0  0.00000000000E+00 -0.11102230246E-15  0.13452004165E+04  0.13480382869E+04  0.87424609110E+02 0.  0.
    9000005    2    3    3    0    0 -0.20767111988E+02  0.66857799476E+00  0.12650842146E+04  0.12652715922E+04  0.65124551626E+01 0.  0.
         22    1    3    3    0    0  0.20767111988E+02 -0.66857799476E+00  0.80116201937E+02  0.82766694688E+02  0.00000000000E+00 0.  1.
         22    1    4    4    0    0 -0.19710321371E+02  0.17927150242E+01  0.12209820955E+04  0.12211424930E+04  0.00000000000E+00 0. -1.
         22    1    4    4    0    0 -0.10567906176E+01 -0.11241370294E+01  0.44102119068E+02  0.44129099206E+02  0.00000000000E+00 0. -1.
<mgrwt>
<rscale>  0 0.87424609E+02</rscale>
<asrwt>0</asrwt>
<pdfrwt beam="1">  1        1 0.20717209E+00 0.87424609E+02</pdfrwt>
<pdfrwt beam="2">  1       -1 0.21829784E-03 0.87424609E+02</pdfrwt>
<totfact> 0.13351296E+05</totfact>
</mgrwt>
</event>
<event>
 7    1  0.6159077E-009  0.9206541E+02  0.7818608E-02  0.1297926E+00
         -1   -1    0    0    0  501 -0.00000000000E+00  0.00000000000E+00  0.17047930026E+03  0.17047930033E+03  0.50400000000E-02 0.  1.
          1   -1    0    0  501    0  0.00000000000E+00 -0.00000000000E+00 -0.12429719250E+02  0.12429720272E+02  0.50400000000E-02 0. -1.
         23    2    1    2    0    0 -0.35527136788E-14 -0.17763568394E-14  0.15804958101E+03  0.18290902061E+03  0.92065410236E+02 0.  0.
    9000005    2    3    3    0    0  0.24741816577E+02  0.13156092933E+02  0.15077010519E+03  0.15395680071E+03  0.13632006365E+02 0.  0.
         22    1    3    3    0    0 -0.24741816577E+02 -0.13156092933E+02  0.72794758239E+01  0.28952219899E+02  0.00000000000E+00 0. -1.
         22    1    4    4    0    0  0.13786395019E+02  0.14566385243E+02  0.10171718757E+03  0.10367560231E+03  0.00000000000E+00 0.  1.
         22    1    4    4    0    0  0.10955421558E+02 -0.14102923098E+01  0.49052917615E+02  0.50281198399E+02  0.00000000000E+00 0.  1.
<mgrwt>
<rscale>  0 0.92065410E+02</rscale>
<asrwt>0</asrwt>
<pdfrwt beam="2">  1        1 0.19122646E-02 0.92065410E+02</pdfrwt>
<pdfrwt beam="1">  1       -1 0.26227584E-01 0.92065410E+02</pdfrwt>
<totfact> 0.70679273E+04</totfact>
</mgrwt>
</event>
<event>
 7    1  0.3565607E-009  0.8754429E+02  0.7818608E-02  0.1308910E+00
         -1   -1    0    0    0  501 -0.00000000000E+00  0.00000000000E+00  0.50816225638E+01  0.50816250631E+01  0.50400000000E-02 0.  1.
          1   -1    0    0  501    0  0.00000000000E+00 -0.00000000000E+00 -0.37704492946E+03  0.37704492949E+03  0.50400000000E-02 0. -1.
         23    2    1    2    0    0  0.00000000000E+00  0.88817841970E-15 -0.37196330690E+03  0.38212655456E+03  0.87544286052E+02 0.  0.
    9000005    2    3    3    0    0 -0.27316570757E+02  0.74501275591E+01 -0.33074753816E+03  0.33212216444E+03  0.10464161412E+02 0.  0.
         22    1    3    3    0    0  0.27316570757E+02 -0.74501275591E+01 -0.41215768738E+02  0.50004390120E+02  0.00000000000E+00 0.  1.
         22    1    4    4    0    0 -0.57156363758E+01 -0.26251478736E+01 -0.78054150115E+02  0.78307153254E+02  0.00000000000E+00 0.  1.
         22    1    4    4    0    0 -0.21600934382E+02  0.10075275433E+02 -0.25269338804E+03  0.25381501118E+03  0.00000000000E+00 0.  1.
<mgrwt>
<rscale>  0 0.87544286E+02</rscale>
<asrwt>0</asrwt>
<pdfrwt beam="2">  1        1 0.58006891E-01 0.87544286E+02</pdfrwt>
<pdfrwt beam="1">  1       -1 0.78178857E-03 0.87544286E+02</pdfrwt>
<totfact> 0.14875472E+05</totfact>
</mgrwt>
</event>
<event>
 7    1  0.3565607E-009  0.8893020E+02  0.7818608E-02  0.1305463E+00
          1   -1    0    0  501    0  0.00000000000E+00  0.00000000000E+00  0.74387817220E+02  0.74387817391E+02  0.50400000000E-02 0. -1.
         -1   -1    0    0    0  501 -0.00000000000E+00 -0.00000000000E+00 -0.26578882074E+02  0.26578882552E+02  0.50400000000E-02 0.  1.
         23    2    1    2    0    0  0.00000000000E+00  0.00000000000E+00  0.47808935146E+02  0.10096669994E+03  0.88930198569E+02 0.  0.
    9000005    2    3    3    0    0 -0.30166357226E+02  0.23330287403E+02 -0.13423896279E+01  0.38756056596E+02  0.67763186440E+01 0.  0.
         22    1    3    3    0    0  0.30166357226E+02 -0.23330287403E+02  0.49151324773E+02  0.62210643347E+02  0.00000000000E+00 0.  1.
         22    1    4    4    0    0 -0.14366639074E+02  0.12775560250E+02 -0.37986777777E+01  0.19597071487E+02  0.00000000000E+00 0. -1.
         22    1    4    4    0    0 -0.15799718152E+02  0.10554727153E+02  0.24562881498E+01  0.19158985109E+02  0.00000000000E+00 0. -1.
<mgrwt>
<rscale>  0 0.88930199E+02</rscale>
<asrwt>0</asrwt>
<pdfrwt beam="1">  1        1 0.11444279E-01 0.88930199E+02</pdfrwt>
<pdfrwt beam="2">  1       -1 0.40890589E-02 0.88930199E+02</pdfrwt>
<totfact> 0.10666095E+05</totfact>
</mgrwt>
</event>
<event>
 7    1  0.3565607E-009  0.1025194E+03  0.7818608E-02  0.1275085E+00
          1   -1    0    0  501    0  0.00000000000E+00  0.00000000000E+00  0.14858548952E+03  0.14858548961E+03  0.50400000000E-02 0.  1.
         -1   -1    0    0    0  501 -0.00000000000E+00 -0.00000000000E+00 -0.17683813034E+02  0.17683813752E+02  0.50400000000E-02 0. -1.
         23    2    1    2    0    0 -0.71054273576E-14  0.00000000000E+00  0.13090167649E+03  0.16626930336E+03  0.10251942417E+03 0.  0.
    9000005    2    3    3    0    0 -0.44698015319E+02 -0.38270126802E+01  0.30166244523E+02  0.55996070647E+02  0.14594485938E+02 0.  0.
         22    1    3    3    0    0  0.44698015319E+02  0.38270126802E+01  0.10073543196E+03  0.11027323271E+03  0.00000000000E+00 0.  1.
         22    1    4    4    0    0 -0.14830260798E+02  0.13204193284E+01  0.17943261170E+02  0.23316105248E+02  0.00000000000E+00 0.  1.
         22    1    4    4    0    0 -0.29867754521E+02 -0.51474320086E+01  0.12222983353E+02  0.32679965399E+02  0.00000000000E+00 0.  1.
<mgrwt>
<rscale>  0 0.10251942E+03</rscale>
<asrwt>0</asrwt>
<pdfrwt beam="1">  1        1 0.22859306E-01 0.10251942E+03</pdfrwt>
<pdfrwt beam="2">  1       -1 0.27205867E-02 0.10251942E+03</pdfrwt>
<totfact> 0.81384332E+04</totfact>
</mgrwt>
</event>
<event>
 7    1  0.3565607E-009  0.8352966E+02  0.7818608E-02  0.1319323E+00
          1   -1    0    0  501    0  0.00000000000E+00  0.00000000000E+00  0.27439054590E+03  0.27439054595E+03  0.50400000000E-02 0. -1.
         -1   -1    0    0    0  501 -0.00000000000E+00 -0.00000000000E+00 -0.63570003412E+01  0.63570023391E+01  0.50400000000E-02 0.  1.
         23    2    1    2    0    0  0.00000000000E+00  0.44408920985E-15  0.26803354556E+03  0.28074754829E+03  0.83529661340E+02 0.  0.
    9000005    2    3    3    0    0 -0.39042292793E+02  0.20957748514E+01  0.17242900863E+03  0.17745708222E+03  0.15184206071E+02 0.  0.
         22    1    3    3    0    0  0.39042292793E+02 -0.20957748514E+01  0.95604536937E+02  0.10329046607E+03  0.00000000000E+00 0.  1.
         22    1    4    4    0    0 -0.23667394165E+02  0.48744825005E+01  0.13035552396E+03  0.13257627522E+03  0.00000000000E+00 0. -1.
         22    1    4    4    0    0 -0.15374898628E+02 -0.27787076491E+01  0.42073484669E+02  0.44880806992E+02  0.00000000000E+00 0. -1.
<mgrwt>
<rscale>  0 0.83529661E+02</rscale>
<asrwt>0</asrwt>
<pdfrwt beam="1">  1        1 0.42213927E-01 0.83529661E+02</pdfrwt>
<pdfrwt beam="2">  1       -1 0.97800028E-03 0.83529661E+02</pdfrwt>
<totfact> 0.15890553E+05</totfact>
</mgrwt>
</event>
<event>
 7    1  0.3565607E-009  0.9640841E+02  0.7818608E-02  0.1288035E+00
         -1   -1    0    0    0  501 -0.00000000000E+00  0.00000000000E+00  0.70376786796E+00  0.70378591459E+00  0.50400000000E-02 0.  1.
          1   -1    0    0  501    0  0.00000000000E+00 -0.00000000000E+00 -0.33016792550E+04  0.33016792551E+04  0.50400000000E-02 0. -1.
         23    2    1    2    0    0  0.17763568394E-14 -0.17763568394E-14 -0.33009754872E+04  0.33023830410E+04  0.96408414048E+02 0.  0.
    9000005    2    3    3    0    0  0.84972166549E+01 -0.94410084285E+01 -0.32425100721E+04  0.32425537831E+04  0.11051406607E+02 0.  0.
         22    1    3    3    0    0 -0.84972166549E+01  0.94410084285E+01 -0.58465415103E+02  0.59829257845E+02  0.00000000000E+00 0.  1.
         22    1    4    4    0    0  0.18379126551E+01 -0.63657427242E+01 -0.24700291434E+04  0.24700380300E+04  0.00000000000E+00 0. -1.
         22    1    4    4    0    0  0.66593039998E+01 -0.30752657043E+01 -0.77248092872E+03  0.77251575313E+03  0.00000000000E+00 0. -1.
<mgrwt>
<rscale>  0 0.96408414E+02</rscale>
<asrwt>0</asrwt>
<pdfrwt beam="2">  1        1 0.50793825E+00 0.96408414E+02</pdfrwt>
<pdfrwt beam="1">  1       -1 0.10827601E-03 0.96408414E+02</pdfrwt>
<totfact> 0.19064078E+04</totfact>
</mgrwt>
</event>
<event>
 7    1  0.3565607E-009  0.9382023E+02  0.7818608E-02  0.1293856E+00
          1   -1    0    0  501    0  0.00000000000E+00  0.00000000000E+00  0.60684097535E+02  0.60684097744E+02  0.50400000000E-02 0. -1.
         -1   -1    0    0    0  501 -0.00000000000E+00 -0.00000000000E+00 -0.36262528516E+02  0.36262528866E+02  0.50400000000E-02 0.  1.
         23    2    1    2    0    0  0.00000000000E+00  0.00000000000E+00  0.24421569019E+02  0.96946626610E+02  0.93820229043E+02 0.  0.
    9000005    2    3    3    0    0  0.22858329329E+02  0.26080603337E+02 -0.19243128704E+02  0.41185467033E+02  0.11101513514E+02 0.  0.
         22    1    3    3    0    0 -0.22858329329E+02 -0.26080603337E+02  0.43664697722E+02  0.55761159577E+02  0.00000000000E+00 0. -1.
         22    1    4    4    0    0  0.96043269375E+01  0.11699213529E+02 -0.14715757163E+02  0.21110855075E+02  0.00000000000E+00 0. -1.
         22    1    4    4    0    0  0.13254002392E+02  0.14381389808E+02 -0.45273715410E+01  0.20074611959E+02  0.00000000000E+00 0. -1.
<mgrwt>
<rscale>  0 0.93820229E+02</rscale>
<asrwt>0</asrwt>
<pdfrwt beam="1">  1        1 0.93360150E-02 0.93820229E+02</pdfrwt>
<pdfrwt beam="2">  1       -1 0.55788506E-02 0.93820229E+02</pdfrwt>
<totfact> 0.89160969E+04</totfact>
</mgrwt>
</event>
<event>
 7    1  0.3565607E-009  0.8942017E+02  0.7818608E-02  0.1304262E+00
         -1   -1    0    0    0  501 -0.00000000000E+00  0.00000000000E+00  0.23445740845E+03  0.23445740850E+03  0.50400000000E-02 0.  1.
          1   -1    0    0  501    0  0.00000000000E+00 -0.00000000000E+00 -0.85260328599E+01  0.85260343496E+01  0.50400000000E-02 0. -1.
         23    2    1    2    0    0  0.35527136788E-14 -0.35527136788E-14  0.22593137559E+03  0.24298344285E+03  0.89420171242E+02 0.  0.
    9000005    2    3    3    0    0  0.30464888572E+02 -0.21299476258E+02  0.47086699991E+02  0.60316546250E+02  0.62571008450E+01 0.  0.
         22    1    3    3    0    0 -0.30464888572E+02  0.21299476258E+02  0.17884467560E+03  0.18266689660E+03  0.00000000000E+00 0.  1.
         22    1    4    4    0    0  0.25975262301E+02 -0.18726077382E+02  0.36656621415E+02  0.48673279315E+02  0.00000000000E+00 0.  1.
         22    1    4    4    0    0  0.44896262702E+01 -0.25733988761E+01  0.10430078576E+02  0.11643266935E+02  0.00000000000E+00 0.  1.
<mgrwt>
<rscale>  0 0.89420171E+02</rscale>
<asrwt>0</asrwt>
<pdfrwt beam="2">  1        1 0.13116974E-02 0.89420171E+02</pdfrwt>
<pdfrwt beam="1">  1       -1 0.36070372E-01 0.89420171E+02</pdfrwt>
<totfact> 0.69594360E+04</totfact>
</mgrwt>
</event>
<event>
 7    1  0.3565607E-009  0.6811699E+02  0.7818608E-02  0.1366616E+00
          1   -1    0    0  501    0  0.00000000000E+00  0.00000000000E+00  0.14245392731E+03  0.14245392740E+03  0.50400000000E-02 0. -1.
         -1   -1    0    0    0  501 -0.00000000000E+00 -0.00000000000E+00 -0.81428490592E+01  0.81428506190E+01  0.50400000000E-02 0.  1.
         23    2    1    2    0    0 -0.35527136788E-14  0.00000000000E+00  0.13431107826E+03  0.15059677802E+03  0.68116986198E+02 0.  0.
    9000005    2    3    3    0    0  0.29343747935E+02  0.81476245908E+01  0.35551722449E+02  0.47248581674E+02  0.64081332486E+01 0.  0.
         22    1    3    3    0    0 -0.29343747935E+02 -0.81476245908E+01  0.98759355806E+02  0.10334819635E+03  0.00000000000E+00 0. -1.
         22    1    4    4    0    0  0.55897138389E+01  0.18125224495E+01  0.34484941893E+01  0.68133876012E+01  0.00000000000E+00 0. -1.
         22    1    4    4    0    0  0.23754034096E+02  0.63351021413E+01  0.32103228260E+02  0.40435194072E+02  0.00000000000E+00 0. -1.
<mgrwt>
<rscale>  0 0.68116986E+02</rscale>
<asrwt>0</asrwt>
<pdfrwt beam="1">  1        1 0.21915986E-01 0.68116986E+02</pdfrwt>
<pdfrwt beam="2">  1       -1 0.12527463E-02 0.68116986E+02</pdfrwt>
<totfact> 0.24078971E+05</totfact>
</mgrwt>
</event>
<event>
 7    1  0.3565607E-009  0.9216044E+02  0.7818608E-02  0.1297703E+00
          1   -1    0    0  501    0  0.00000000000E+00  0.00000000000E+00  0.33290712357E+03  0.33290712361E+03  0.50400000000E-02 0. -1.
         -1   -1    0    0    0  501 -0.00000000000E+00 -0.00000000000E+00 -0.63783140450E+01  0.63783160362E+01  0.50400000000E-02 0.  1.
         23    2    1    2    0    0  0.00000000000E+00  0.00000000000E+00  0.32652880953E+03  0.33928543964E+03  0.92160436766E+02 0.  0.
    9000005    2    3    3    0    0  0.88366084751E+01 -0.90828804638E+01  0.32622355328E+03  0.32660957485E+03  0.95615533126E+01 0.  0.
         22    1    3    3    0    0 -0.88366084751E+01  0.90828804638E+01  0.30525624243E+00  0.12675864792E+02  0.00000000000E+00 0.  1.
         22    1    4    4    0    0  0.83534848195E+01 -0.25589331787E+01  0.14090420270E+03  0.14117479657E+03  0.00000000000E+00 0.  1.
         22    1    4    4    0    0  0.48312365566E+00 -0.65239472852E+01  0.18531935058E+03  0.18543477829E+03  0.00000000000E+00 0.  1.
<mgrwt>
<rscale>  0 0.92160437E+02</rscale>
<asrwt>0</asrwt>
<pdfrwt beam="1">  1        1 0.51216484E-01 0.92160437E+02</pdfrwt>
<pdfrwt beam="2">  1       -1 0.98127918E-03 0.92160437E+02</pdfrwt>
<totfact> 0.12696180E+05</totfact>
</mgrwt>
</event>
<event>
 7    1  0.3565607E-009  0.9062496E+02  0.7818608E-02  0.1301345E+00
          1   -1    0    0  501    0  0.00000000000E+00  0.00000000000E+00  0.39925315489E+02  0.39925315807E+02  0.50400000000E-02 0. -1.
         -1   -1    0    0    0  501 -0.00000000000E+00 -0.00000000000E+00 -0.51426537379E+02  0.51426537626E+02  0.50400000000E-02 0.  1.
         23    2    1    2    0    0  0.00000000000E+00  0.35527136788E-14 -0.11501221890E+02  0.91351853433E+02  0.90624958045E+02 0.  0.
    9000005    2    3    3    0    0 -0.31017202304E+02  0.31057412415E+02 -0.46415569424E-01  0.45988406777E+02  0.13722306613E+02 0.  0.
         22    1    3    3    0    0  0.31017202304E+02 -0.31057412415E+02 -0.11454806320E+02  0.45363446656E+02  0.00000000000E+00 0.  1.
         22    1    4    4    0    0 -0.31026513274E+02  0.32198133374E+02 -0.60474842645E+00  0.44718341196E+02  0.00000000000E+00 0. -1.
         22    1    4    4    0    0  0.93109695770E-02 -0.11407209588E+01  0.55833285703E+00  0.12700655807E+01  0.00000000000E+00 0. -1.
<mgrwt>
<rscale>  0 0.90624958E+02</rscale>
<asrwt>0</asrwt>
<pdfrwt beam="1">  1        1 0.61423563E-02 0.90624958E+02</pdfrwt>
<pdfrwt beam="2">  1       -1 0.79117750E-02 0.90624958E+02</pdfrwt>
<totfact> 0.92204376E+04</totfact>
</mgrwt>
</event>
<event>
 7    1  0.3565607E-009  0.9097396E+02  0.7818608E-02  0.1300510E+00
          1   -1    0    0  501    0  0.00000000000E+00  0.00000000000E+00  0.32946308862E+02  0.32946309247E+02  0.50400000000E-02 0. -1.
         -1   -1    0    0    0  501 -0.00000000000E+00 -0.00000000000E+00 -0.62801122645E+02  0.62801122847E+02  0.50400000000E-02 0.  1.
         23    2    1    2    0    0  0.00000000000E+00 -0.22204460493E-15 -0.29854813783E+02  0.95747432094E+02  0.90973956969E+02 0.  0.
    9000005    2    3    3    0    0  0.44683208208E+02  0.18040970519E+01 -0.15578432145E+02  0.48804286325E+02  0.11803683902E+02 0.  0.
         22    1    3    3    0    0 -0.44683208208E+02 -0.18040970519E+01 -0.14276381638E+02  0.46943145769E+02  0.00000000000E+00 0. -1.
         22    1    4    4    0    0  0.20294140057E+02 -0.14156675762E+01 -0.13568037273E+01  0.20388652523E+02  0.00000000000E+00 0. -1.
         22    1    4    4    0    0  0.24389068151E+02  0.32197646281E+01 -0.14221628418E+02  0.28415633802E+02  0.00000000000E+00 0. -1.
<mgrwt>
<rscale>  0 0.90973957E+02</rscale>
<asrwt>0</asrwt>
<pdfrwt beam="1">  1        1 0.50686630E-02 0.90973957E+02</pdfrwt>
<pdfrwt beam="2">  1       -1 0.96617112E-02 0.90973957E+02</pdfrwt>
<totfact> 0.88549333E+04</totfact>
</mgrwt>
</event>
<event>
 7    1  0.3565607E-009  0.9438630E+02  0.7818608E-02  0.1292564E+00
         -1   -1    0    0    0  501 -0.00000000000E+00  0.00000000000E+00  0.37976585459E+01  0.37976618903E+01  0.50400000000E-02 0.  1.
          1   -1    0    0  501    0  0.00000000000E+00 -0.00000000000E+00 -0.58646469076E+03  0.58646469078E+03  0.50400000000E-02 0. -1.
         23    2    1    2    0    0  0.35527136788E-14  0.35527136788E-14 -0.58266703221E+03  0.59026235267E+03  0.94386304900E+02 0.  0.
    9000005    2    3    3    0    0 -0.30811466724E+02 -0.29277239687E+02 -0.40912963586E+03  0.41159581641E+03  0.14749708621E+02 0.  0.
         22    1    3    3    0    0  0.30811466724E+02  0.29277239687E+02 -0.17353739635E+03  0.17866653626E+03  0.00000000000E+00 0.  1.
         22    1    4    4    0    0 -0.17245315864E+02 -0.67006196977E+01 -0.18553406917E+03  0.18645425725E+03  0.00000000000E+00 0. -1.
         22    1    4    4    0    0 -0.13566150860E+02 -0.22576619989E+02 -0.22359556669E+03  0.22514155917E+03  0.00000000000E+00 0. -1.
<mgrwt>
<rscale>  0 0.94386305E+02</rscale>
<asrwt>0</asrwt>
<pdfrwt beam="2">  1        1 0.90225266E-01 0.94386305E+02</pdfrwt>
<pdfrwt beam="1">  1       -1 0.58425588E-03 0.94386305E+02</pdfrwt>
<totfact> 0.12898565E+05</totfact>
</mgrwt>
</event>
<event>
 7    1  0.3565607E-009  0.8861628E+02  0.7818608E-02  0.1306238E+00
          1   -1    0    0  501    0  0.00000000000E+00  0.00000000000E+00  0.17923916439E+02  0.17923917147E+02  0.50400000000E-02 0. -1.
         -1   -1    0    0    0  501 -0.00000000000E+00 -0.00000000000E+00 -0.10953026315E+03  0.10953026327E+03  0.50400000000E-02 0.  1.
         23    2    1    2    0    0  0.00000000000E+00  0.00000000000E+00 -0.91606346716E+02  0.12745418042E+03  0.88616281503E+02 0.  0.
    9000005    2    3    3    0    0  0.31492636424E+02  0.97458806233E+01 -0.87073565103E+02  0.94177845776E+02  0.14173657157E+02 0.  0.
         22    1    3    3    0    0 -0.31492636424E+02 -0.97458806233E+01 -0.45327816133E+01  0.33276334642E+02  0.00000000000E+00 0. -1.
         22    1    4    4    0    0  0.27011079555E+02  0.13184640700E+02 -0.69570016719E+02  0.75785357395E+02  0.00000000000E+00 0.  1.
         22    1    4    4    0    0  0.44815568691E+01 -0.34387600768E+01 -0.17503548383E+02  0.18392488381E+02  0.00000000000E+00 0.  1.
<mgrwt>
<rscale>  0 0.88616282E+02</rscale>
<asrwt>0</asrwt>
<pdfrwt beam="1">  1        1 0.27575257E-02 0.88616282E+02</pdfrwt>
<pdfrwt beam="2">  1       -1 0.16850809E-01 0.88616282E+02</pdfrwt>
<totfact> 0.86064645E+04</totfact>
</mgrwt>
</event>
<event>
 7    1  0.3565607E-009  0.8977357E+02  0.7818608E-02  0.1303401E+00
          1   -1    0    0  501    0  0.00000000000E+00  0.00000000000E+00  0.44831337676E+03  0.44831337679E+03  0.50400000000E-02 0. -1.
         -1   -1    0    0    0  501 -0.00000000000E+00 -0.00000000000E+00 -0.44942288577E+01  0.44942316837E+01  0.50400000000E-02 0.  1.
         23    2    1    2    0    0  0.00000000000E+00  0.00000000000E+00  0.44381914790E+03  0.45280760847E+03  0.89773572088E+02 0.  0.
    9000005    2    3    3    0    0  0.41181222560E+02  0.13750089962E+02  0.27249736661E+03  0.27607020210E+03  0.86593079025E+01 0.  0.
         22    1    3    3    0    0 -0.41181222560E+02 -0.13750089962E+02  0.17132178130E+03  0.17673740637E+03  0.00000000000E+00 0.  1.
         22    1    4    4    0    0  0.17103169822E+02  0.10015223343E+02  0.13081183719E+03  0.13230479910E+03  0.00000000000E+00 0. -1.
         22    1    4    4    0    0  0.24078052738E+02  0.37348666187E+01  0.14168552942E+03  0.14376540299E+03  0.00000000000E+00 0. -1.
<mgrwt>
<rscale>  0 0.89773572E+02</rscale>
<asrwt>0</asrwt>
<pdfrwt beam="1">  1        1 0.68971242E-01 0.89773572E+02</pdfrwt>
<pdfrwt beam="2">  1       -1 0.69142051E-03 0.89773572E+02</pdfrwt>
<totfact> 0.14304268E+05</totfact>
</mgrwt>
</event>
<event>
 7    1  0.3565607E-009  0.9192867E+02  0.7818608E-02  0.1298247E+00
         -1   -1    0    0    0  501 -0.00000000000E+00  0.00000000000E+00  0.15170178412E+02  0.15170179249E+02  0.50400000000E-02 0.  1.
          1   -1    0    0  501    0  0.00000000000E+00 -0.00000000000E+00 -0.13926796322E+03  0.13926796331E+03  0.50400000000E-02 0. -1.
         23    2    1    2    0    0  0.71054273576E-14 -0.17763568394E-14 -0.12409778480E+03  0.15443814256E+03  0.91928666274E+02 0.  0.
    9000005    2    3    3    0    0 -0.42417697085E+02 -0.11945326303E+02 -0.45868073472E+02  0.64650395165E+02  0.11568992368E+02 0.  0.
         22    1    3    3    0    0  0.42417697085E+02  0.11945326303E+02 -0.78229711332E+02  0.89787747392E+02  0.00000000000E+00 0. -1.
         22    1    4    4    0    0 -0.39478647648E+02 -0.13789126962E+02 -0.44032133360E+02  0.60725055872E+02  0.00000000000E+00 0.  1.
         22    1    4    4    0    0 -0.29390494370E+01  0.18438006589E+01 -0.18359401123E+01  0.39253392922E+01  0.00000000000E+00 0.  1.
<mgrwt>
<rscale>  0 0.91928666E+02</rscale>
<asrwt>0</asrwt>
<pdfrwt beam="2">  1        1 0.21425840E-01 0.91928666E+02</pdfrwt>
<pdfrwt beam="1">  1       -1 0.23338738E-02 0.91928666E+02</pdfrwt>
<totfact> 0.10819386E+05</totfact>
</mgrwt>
</event>
<event>
 7    1  0.3565607E-009  0.9175413E+02  0.7818608E-02  0.1298659E+00
          1   -1    0    0  501    0  0.00000000000E+00  0.00000000000E+00  0.58926338974E+02  0.58926339189E+02  0.50400000000E-02 0. -1.
         -1   -1    0    0    0  501 -0.00000000000E+00 -0.00000000000E+00 -0.35717560530E+02  0.35717560885E+02  0.50400000000E-02 0.  1.
         23    2    1    2    0    0  0.00000000000E+00  0.00000000000E+00  0.23208778444E+02  0.94643900075E+02  0.91754130286E+02 0.  0.
    9000005    2    3    3    0    0 -0.30195396333E+02  0.31078408502E+02  0.26291296732E+02  0.51202774932E+02  0.72706562416E+01 0.  0.
         22    1    3    3    0    0  0.30195396333E+02 -0.31078408502E+02 -0.30825182876E+01  0.43441125143E+02  0.00000000000E+00 0.  1.
         22    1    4    4    0    0 -0.11785870236E+01  0.86242062869E+00  0.28385993345E+01  0.31922535762E+01  0.00000000000E+00 0.  1.
         22    1    4    4    0    0 -0.29016809309E+02  0.30215987873E+02  0.23452697397E+02  0.48010521356E+02  0.00000000000E+00 0.  1.
<mgrwt>
<rscale>  0 0.91754130E+02</rscale>
<asrwt>0</asrwt>
<pdfrwt beam="1">  1        1 0.90655905E-02 0.91754130E+02</pdfrwt>
<pdfrwt beam="2">  1       -1 0.54950094E-02 0.91754130E+02</pdfrwt>
<totfact> 0.94436941E+04</totfact>
</mgrwt>
</event>
<event>
 6    1  0.3565607E-009  0.1679697E+03  0.7818608E-02  0.1179982E+00
          1   -1    0    0  501    0  0.00000000000E+00  0.00000000000E+00  0.22883013436E+03  0.22883013442E+03  0.50400000000E-02 0. -1.
         -1   -1    0    0    0  501 -0.00000000000E+00 -0.00000000000E+00 -0.30823982567E+02  0.30823982979E+02  0.50400000000E-02 0.  1.
    9000005    2    1    2    0    0 -0.51615358313E+01 -0.76809773023E+02  0.14980956039E+03  0.16882849267E+03  0.11566022214E+02 0.  0.
         22    1    1    2    0    0  0.51615358313E+01  0.76809773023E+02  0.48196591410E+02  0.90825624730E+02  0.00000000000E+00 0.  1.
         22    1    3    3    0    0 -0.34492920275E+01 -0.18740321865E+02  0.47429529891E+02  0.51114162272E+02  0.00000000000E+00 0.  1.
         22    1    3    3    0    0 -0.17122438038E+01 -0.58069451158E+02  0.10238003050E+03  0.11771433040E+03  0.00000000000E+00 0.  1.
<mgrwt>
<rscale>  0 0.16796971E+03</rscale>
<asrwt>0</asrwt>
<pdfrwt beam="1">  1        1 0.35204636E-01 0.16796971E+03</pdfrwt>
<pdfrwt beam="2">  1       -1 0.47421512E-02 0.16796971E+03</pdfrwt>
<totfact> 0.22342559E+04</totfact>
</mgrwt>
</event>
<event>
 7    1  0.3565607E-009  0.9050798E+02  0.7818608E-02  0.1301626E+00
         -1   -1    0    0    0  501 -0.00000000000E+00  0.00000000000E+00  0.99362894379E+03  0.99362894381E+03  0.50400000000E-02 0.  1.
          1   -1    0    0  501    0  0.00000000000E+00 -0.00000000000E+00 -0.20610514581E+01  0.20610576204E+01  0.50400000000E-02 0. -1.
         23    2    1    2    0    0  0.00000000000E+00 -0.17763568394E-14  0.99156789233E+03  0.99569000143E+03  0.90507976613E+02 0.  0.
    9000005    2    3    3    0    0  0.25254854161E+02  0.14091926319E+02  0.87418916625E+03  0.87480098049E+03  0.15286171114E+02 0.  0.
         22    1    3    3    0    0 -0.25254854161E+02 -0.14091926319E+02  0.11737872608E+03  0.12088902093E+03  0.00000000000E+00 0. -1.
         22    1    4    4    0    0  0.21029027837E+02  0.45659430327E+01  0.67072003382E+03  0.67106514707E+03  0.00000000000E+00 0.  1.
         22    1    4    4    0    0  0.42258263245E+01  0.95259832867E+01  0.20346913243E+03  0.20373583342E+03  0.00000000000E+00 0.  1.
<mgrwt>
<rscale>  0 0.90507977E+02</rscale>
<asrwt>0</asrwt>
<pdfrwt beam="2">  1        1 0.31708362E-03 0.90507977E+02</pdfrwt>
<pdfrwt beam="1">  1       -1 0.15286681E+00 0.90507977E+02</pdfrwt>
<totfact> 0.26349816E+04</totfact>
</mgrwt>
</event>
<event>
 7    1  0.3565607E-009  0.8856319E+02  0.7818608E-02  0.1306369E+00
          1   -1    0    0  501    0  0.00000000000E+00  0.00000000000E+00  0.39254413065E+02  0.39254413388E+02  0.50400000000E-02 0. -1.
         -1   -1    0    0    0  501 -0.00000000000E+00 -0.00000000000E+00 -0.49952587266E+02  0.49952587520E+02  0.50400000000E-02 0.  1.
         23    2    1    2    0    0  0.00000000000E+00  0.00000000000E+00 -0.10698174201E+02  0.89207000908E+02  0.88563186934E+02 0.  0.
    9000005    2    3    3    0    0  0.23218164742E+02  0.21499982789E+02 -0.35934381637E+02  0.48732334762E+02  0.90679784829E+01 0.  0.
         22    1    3    3    0    0 -0.23218164742E+02 -0.21499982789E+02  0.25236207436E+02  0.40474666147E+02  0.00000000000E+00 0. -1.
         22    1    4    4    0    0  0.61718073505E+01  0.73272383729E+01 -0.53940591511E+01  0.10994339556E+02  0.00000000000E+00 0.  1.
         22    1    4    4    0    0  0.17046357392E+02  0.14172744417E+02 -0.30540322486E+02  0.37737995206E+02  0.00000000000E+00 0.  1.
<mgrwt>
<rscale>  0 0.88563187E+02</rscale>
<asrwt>0</asrwt>
<pdfrwt beam="1">  1        1 0.60391405E-02 0.88563187E+02</pdfrwt>
<pdfrwt beam="2">  1       -1 0.76850135E-02 0.88563187E+02</pdfrwt>
<totfact> 0.98126176E+04</totfact>
</mgrwt>
</event>
<event>
 7    1  0.3565607E-009  0.9012510E+02  0.7818608E-02  0.1302549E+00
         -1   -1    0    0    0  501 -0.00000000000E+00  0.00000000000E+00  0.39826822030E+02  0.39826822349E+02  0.50400000000E-02 0.  1.
          1   -1    0    0  501    0  0.00000000000E+00 -0.00000000000E+00 -0.50986577399E+02  0.50986577649E+02  0.50400000000E-02 0. -1.
         23    2    1    2    0    0  0.00000000000E+00  0.00000000000E+00 -0.11159755370E+02  0.90813399997E+02  0.90125099052E+02 0.  0.
    9000005    2    3    3    0    0 -0.31165546175E+02 -0.13433232887E+02  0.23343851695E+02  0.42416686115E+02  0.10124072048E+02 0.  0.
         22    1    3    3    0    0  0.31165546175E+02  0.13433232887E+02 -0.34503607065E+02  0.48396713883E+02  0.00000000000E+00 0. -1.
         22    1    4    4    0    0 -0.16633601012E+02 -0.17281871005E+01  0.11939630812E+02  0.20547946301E+02  0.00000000000E+00 0.  1.
         22    1    4    4    0    0 -0.14531945163E+02 -0.11705045786E+02  0.11404220883E+02  0.21868739813E+02  0.00000000000E+00 0.  1.
<mgrwt>
<rscale>  0 0.90125099E+02</rscale>
<asrwt>0</asrwt>
<pdfrwt beam="2">  1        1 0.78440889E-02 0.90125099E+02</pdfrwt>
<pdfrwt beam="1">  1       -1 0.61272034E-02 0.90125099E+02</pdfrwt>
<totfact> 0.97131126E+04</totfact>
</mgrwt>
</event>
<event>
 7    1  0.3565607E-009  0.8761282E+02  0.7818608E-02  0.1308738E+00
         -1   -1    0    0    0  501 -0.00000000000E+00  0.00000000000E+00  0.24946047977E+02  0.24946048487E+02  0.50400000000E-02 0.  1.
          1   -1    0    0  501    0  0.00000000000E+00 -0.00000000000E+00 -0.76926069701E+02  0.76926069867E+02  0.50400000000E-02 0. -1.
         23    2    1    2    0    0  0.00000000000E+00  0.17763568394E-14 -0.51980021724E+02  0.10187211835E+03  0.87612817780E+02 0.  0.
    9000005    2    3    3    0    0 -0.26667922664E+02 -0.11721258064E+02  0.11612603361E+02  0.31925081568E+02  0.59826655057E+01 0.  0.
         22    1    3    3    0    0  0.26667922664E+02  0.11721258064E+02 -0.63592625085E+02  0.69947036785E+02  0.00000000000E+00 0. -1.
         22    1    4    4    0    0 -0.25812112788E+02 -0.11460605178E+02  0.97829199485E+01  0.29888395079E+02  0.00000000000E+00 0.  1.
         22    1    4    4    0    0 -0.85580987525E+00 -0.26065288511E+00  0.18296834122E+01  0.20366864898E+01  0.00000000000E+00 0.  1.
<mgrwt>
<rscale>  0 0.87612818E+02</rscale>
<asrwt>0</asrwt>
<pdfrwt beam="2">  1        1 0.11834780E-01 0.87612818E+02</pdfrwt>
<pdfrwt beam="1">  1       -1 0.38378536E-02 0.87612818E+02</pdfrwt>
<totfact> 0.11167778E+05</totfact>
</mgrwt>
</event>
<event>
 7    1  0.3565607E-009  0.9373909E+02  0.7818608E-02  0.1294041E+00
         -1   -1    0    0    0  501 -0.00000000000E+00  0.00000000000E+00  0.75014870152E+02  0.75014870322E+02  0.50400000000E-02 0.  1.
          1   -1    0    0  501    0  0.00000000000E+00 -0.00000000000E+00 -0.29284249056E+02  0.29284249489E+02  0.50400000000E-02 0. -1.
         23    2    1    2    0    0  0.88817841970E-15  0.00000000000E+00  0.45730621097E+02  0.10429911981E+03  0.93739088365E+02 0.  0.
    9000005    2    3    3    0    0 -0.67468456231E+01  0.42673632555E+02  0.68691581842E+01  0.46189119458E+02  0.14821962789E+02 0.  0.
         22    1    3    3    0    0  0.67468456231E+01 -0.42673632555E+02  0.38861462913E+02  0.58110000353E+02  0.00000000000E+00 0.  1.
         22    1    4    4    0    0  0.45594414082E+01  0.13518212026E+02  0.49399985046E+00  0.14274964034E+02  0.00000000000E+00 0.  1.
         22    1    4    4    0    0 -0.11306287031E+02  0.29155420529E+02  0.63751583337E+01  0.31914155424E+02  0.00000000000E+00 0.  1.
<mgrwt>
<rscale>  0 0.93739088E+02</rscale>
<asrwt>0</asrwt>
<pdfrwt beam="2">  1        1 0.45052692E-02 0.93739088E+02</pdfrwt>
<pdfrwt beam="1">  1       -1 0.11540749E-01 0.93739088E+02</pdfrwt>
<totfact> 0.79709710E+04</totfact>
</mgrwt>
</event>
<event>
 7    1  0.3565607E-009  0.9089507E+02  0.7818608E-02  0.1300699E+00
          1   -1    0    0  501    0  0.00000000000E+00  0.00000000000E+00  0.53143110934E+02  0.53143111173E+02  0.50400000000E-02 0. -1.
         -1   -1    0    0    0  501 -0.00000000000E+00 -0.00000000000E+00 -0.38866346765E+02  0.38866347091E+02  0.50400000000E-02 0.  1.
         23    2    1    2    0    0  0.00000000000E+00  0.00000000000E+00  0.14276764169E+02  0.92009458264E+02  0.90895073656E+02 0.  0.
    9000005    2    3    3    0    0 -0.28267003827E+02  0.25777637948E+02  0.31771761770E+02  0.49943021946E+02  0.46206570495E+01 0.  0.
         22    1    3    3    0    0  0.28267003827E+02 -0.25777637948E+02 -0.17494997600E+02  0.42066436319E+02  0.00000000000E+00 0.  1.
         22    1    4    4    0    0 -0.21708356503E+02  0.19504517689E+02  0.26655322881E+02  0.39524488488E+02  0.00000000000E+00 0. -1.
         22    1    4    4    0    0 -0.65586473234E+01  0.62731202595E+01  0.51164388884E+01  0.10418533457E+02  0.00000000000E+00 0. -1.
<mgrwt>
<rscale>  0 0.90895074E+02</rscale>
<asrwt>0</asrwt>
<pdfrwt beam="1">  1        1 0.81758632E-02 0.90895074E+02</pdfrwt>
<pdfrwt beam="2">  1       -1 0.59794380E-02 0.90895074E+02</pdfrwt>
<totfact> 0.95445570E+04</totfact>
</mgrwt>
</event>
<event>
 7    1  0.3565607E-009  0.9130896E+02  0.7818608E-02  0.1299712E+00
          1   -1    0    0  501    0  0.00000000000E+00  0.00000000000E+00  0.10397301217E+02  0.10397302439E+02  0.50400000000E-02 0. -1.
         -1   -1    0    0    0  501 -0.00000000000E+00 -0.00000000000E+00 -0.20046852035E+03  0.20046852041E+03  0.50400000000E-02 0.  1.
         23    2    1    2    0    0  0.00000000000E+00  0.35527136788E-14 -0.19007121913E+03  0.21086582285E+03  0.91308963986E+02 0.  0.
    9000005    2    3    3    0    0 -0.19147874616E+02 -0.29438957734E+02 -0.16193945924E+03  0.16586927577E+03  0.74118047655E+01 0.  0.
         22    1    3    3    0    0  0.19147874616E+02  0.29438957734E+02 -0.28131759889E+02  0.44996547081E+02  0.00000000000E+00 0.  1.
         22    1    4    4    0    0 -0.13452738205E+02 -0.16071600526E+02 -0.10750368101E+03  0.10952768572E+03  0.00000000000E+00 0. -1.
         22    1    4    4    0    0 -0.56951364110E+01 -0.13367357207E+02 -0.54435778230E+02  0.56341590046E+02  0.00000000000E+00 0. -1.
<mgrwt>
<rscale>  0 0.91308964E+02</rscale>
<asrwt>0</asrwt>
<pdfrwt beam="1">  1        1 0.15995850E-02 0.91308964E+02</pdfrwt>
<pdfrwt beam="2">  1       -1 0.30841308E-01 0.91308964E+02</pdfrwt>
<totfact> 0.69116590E+04</totfact>
</mgrwt>
</event>
<event>
 7    1  0.3565607E-009  0.9994341E+02  0.7818608E-02  0.1280415E+00
         -1   -1    0    0    0  501 -0.00000000000E+00  0.00000000000E+00  0.32078655902E+01  0.32078695494E+01  0.50400000000E-02 0.  1.
          1   -1    0    0  501    0  0.00000000000E+00 -0.00000000000E+00 -0.77845209563E+03  0.77845209564E+03  0.50400000000E-02 0. -1.
         23    2    1    2    0    0  0.00000000000E+00  0.00000000000E+00 -0.77524423004E+03  0.78165996519E+03  0.99943408886E+02 0.  0.
    9000005    2    3    3    0    0 -0.14403919540E+02  0.42589405766E+02 -0.55643182504E+03  0.55827644081E+03  0.59057661177E+01 0.  0.
         22    1    3    3    0    0  0.14403919540E+02 -0.42589405766E+02 -0.21881240500E+03  0.22338352438E+03  0.00000000000E+00 0.  1.
         22    1    4    4    0    0 -0.63941791592E+01  0.11262576647E+02 -0.17239379524E+03  0.17287958757E+03  0.00000000000E+00 0.  1.
         22    1    4    4    0    0 -0.80097403810E+01  0.31326829119E+02 -0.38403802980E+03  0.38539685325E+03  0.00000000000E+00 0.  1.
<mgrwt>
<rscale>  0 0.99943409E+02</rscale>
<asrwt>0</asrwt>
<pdfrwt beam="2">  1        1 0.11976171E+00 0.99943409E+02</pdfrwt>
<pdfrwt beam="1">  1       -1 0.49351871E-03 0.99943409E+02</pdfrwt>
<totfact> 0.11096417E+05</totfact>
</mgrwt>
</event>
<event>
 7    1  0.3565607E-009  0.9435861E+02  0.7818608E-02  0.1292627E+00
         -1   -1    0    0    0  501 -0.00000000000E+00  0.00000000000E+00  0.12420599158E+03  0.12420599168E+03  0.50400000000E-02 0.  1.
          1   -1    0    0  501    0  0.00000000000E+00 -0.00000000000E+00 -0.17920929864E+02  0.17920930573E+02  0.50400000000E-02 0. -1.
         23    2    1    2    0    0  0.00000000000E+00  0.00000000000E+00  0.10628506171E+03  0.14212692225E+03  0.94358612144E+02 0.  0.
    9000005    2    3    3    0    0  0.24837805707E+02  0.14251675429E+02 -0.24627863164E+01  0.29671947726E+02  0.73710460952E+01 0.  0.
         22    1    3    3    0    0 -0.24837805707E+02 -0.14251675429E+02  0.10874784803E+03  0.11245497453E+03  0.00000000000E+00 0.  1.
         22    1    4    4    0    0  0.24850868030E+02  0.14173369135E+02 -0.33294514321E+01  0.28801654142E+02  0.00000000000E+00 0. -1.
         22    1    4    4    0    0 -0.13062322811E-01  0.78306294481E-01  0.86666511569E+00  0.87029358425E+00  0.00000000000E+00 0. -1.
<mgrwt>
<rscale>  0 0.94358612E+02</rscale>
<asrwt>0</asrwt>
<pdfrwt beam="2">  1        1 0.27570662E-02 0.94358612E+02</pdfrwt>
<pdfrwt beam="1">  1       -1 0.19108614E-01 0.94358612E+02</pdfrwt>
<totfact> 0.71342650E+04</totfact>
</mgrwt>
</event>
<event>
 7    1  0.3565607E-009  0.8311478E+02  0.7818608E-02  0.1320438E+00
         -1   -1    0    0    0  501 -0.00000000000E+00  0.00000000000E+00  0.11573186660E+03  0.11573186671E+03  0.50400000000E-02 0.  1.
          1   -1    0    0  501    0  0.00000000000E+00 -0.00000000000E+00 -0.14922566875E+02  0.14922567726E+02  0.50400000000E-02 0. -1.
         23    2    1    2    0    0  0.00000000000E+00  0.00000000000E+00  0.10080929972E+03  0.13065443443E+03  0.83114778026E+02 0.  0.
    9000005    2    3    3    0    0 -0.22116278901E+02 -0.34483063746E+02  0.55002019730E+02  0.69201050653E+02  0.92386015869E+01 0.  0.
         22    1    3    3    0    0  0.22116278901E+02  0.34483063746E+02  0.45807279990E+02  0.61453383778E+02  0.00000000000E+00 0.  1.
         22    1    4    4    0    0 -0.32128739204E+01 -0.11516457870E+02  0.12237074621E+02  0.17108400159E+02  0.00000000000E+00 0.  1.
         22    1    4    4    0    0 -0.18903404980E+02 -0.22966605876E+02  0.42764945109E+02  0.52092650494E+02  0.00000000000E+00 0.  1.
<mgrwt>
<rscale>  0 0.83114778E+02</rscale>
<asrwt>0</asrwt>
<pdfrwt beam="2">  1        1 0.22957796E-02 0.83114778E+02</pdfrwt>
<pdfrwt beam="1">  1       -1 0.17804903E-01 0.83114778E+02</pdfrwt>
<totfact> 0.10041872E+05</totfact>
</mgrwt>
</event>
<event>
 7    1  0.3565607E-009  0.9110107E+02  0.7818608E-02  0.1300207E+00
         -1   -1    0    0    0  501 -0.00000000000E+00  0.00000000000E+00  0.23176113527E+02  0.23176114075E+02  0.50400000000E-02 0.  1.
          1   -1    0    0  501    0  0.00000000000E+00 -0.00000000000E+00 -0.89525415193E+02  0.89525415335E+02  0.50400000000E-02 0. -1.
         23    2    1    2    0    0  0.00000000000E+00  0.00000000000E+00 -0.66349301666E+02  0.11270152941E+03  0.91101069696E+02 0.  0.
    9000005    2    3    3    0    0 -0.29408517166E+02  0.51950662830E+01  0.78859195721E+01  0.32684545788E+02  0.10688414771E+02 0.  0.
         22    1    3    3    0    0  0.29408517166E+02 -0.51950662830E+01 -0.74235221238E+02  0.80016983621E+02  0.00000000000E+00 0. -1.
         22    1    4    4    0    0 -0.23164823020E+02  0.65255281946E+01  0.22544304504E+01  0.24171760391E+02  0.00000000000E+00 0.  1.
         22    1    4    4    0    0 -0.62436941462E+01 -0.13304619116E+01  0.56314891217E+01  0.85127853971E+01  0.00000000000E+00 0.  1.
<mgrwt>
<rscale>  0 0.91101070E+02</rscale>
<asrwt>0</asrwt>
<pdfrwt beam="2">  1        1 0.13773141E-01 0.91101070E+02</pdfrwt>
<pdfrwt beam="1">  1       -1 0.35655560E-02 0.91101070E+02</pdfrwt>
<totfact> 0.10280617E+05</totfact>
</mgrwt>
</event>
<event>
 7    1  0.3565607E-009  0.9025599E+02  0.7818608E-02  0.1302233E+00
          1   -1    0    0  501    0  0.00000000000E+00  0.00000000000E+00  0.24051910245E+03  0.24051910250E+03  0.50400000000E-02 0.  1.
         -1   -1    0    0    0  501 -0.00000000000E+00 -0.00000000000E+00 -0.84672506700E+01  0.84672521700E+01  0.50400000000E-02 0. -1.
         23    2    1    2    0    0  0.71054273576E-14  0.00000000000E+00  0.23205185178E+03  0.24898635467E+03  0.90255985389E+02 0.  0.
    9000005    2    3    3    0    0  0.41429073134E+02  0.16803532488E+01  0.79357408192E+02  0.90762510735E+02  0.14867529457E+02 0.  0.
         22    1    3    3    0    0 -0.41429073134E+02 -0.16803532488E+01  0.15269444358E+03  0.15822384393E+03  0.00000000000E+00 0.  1.
         22    1    4    4    0    0  0.10048716988E+02  0.43266701873E+00  0.81792023133E+01  0.12963921641E+02  0.00000000000E+00 0.  1.
         22    1    4    4    0    0  0.31380356146E+02  0.12476862300E+01  0.71178205879E+02  0.77798589094E+02  0.00000000000E+00 0.  1.
<mgrwt>
<rscale>  0 0.90255985E+02</rscale>
<asrwt>0</asrwt>
<pdfrwt beam="1">  1        1 0.37002937E-01 0.90255985E+02</pdfrwt>
<pdfrwt beam="2">  1       -1 0.13026541E-02 0.90255985E+02</pdfrwt>
<totfact> 0.12611415E+05</totfact>
</mgrwt>
</event>
<event>
 7    1  0.3565607E-009  0.9442410E+02  0.7818608E-02  0.1292478E+00
          1   -1    0    0  501    0  0.00000000000E+00  0.00000000000E+00  0.10253430527E+03  0.10253430540E+03  0.50400000000E-02 0. -1.
         -1   -1    0    0    0  501 -0.00000000000E+00 -0.00000000000E+00 -0.21738847739E+02  0.21738848324E+02  0.50400000000E-02 0.  1.
         23    2    1    2    0    0  0.71054273576E-14  0.44408920985E-15  0.80795457532E+02  0.12427315372E+03  0.94424100618E+02 0.  0.
    9000005    2    3    3    0    0  0.44466118738E+02 -0.39533504773E+01  0.57303545466E+02  0.73827790918E+02  0.13190212024E+02 0.  0.
         22    1    3    3    0    0 -0.44466118738E+02  0.39533504773E+01  0.23491912066E+02  0.50445362801E+02  0.00000000000E+00 0.  1.
         22    1    4    4    0    0  0.41047605340E+02 -0.50886602213E+01  0.45515699255E+02  0.61501863758E+02  0.00000000000E+00 0. -1.
         22    1    4    4    0    0  0.34185133979E+01  0.11353097440E+01  0.11787846211E+02  0.12325927160E+02  0.00000000000E+00 0. -1.
<mgrwt>
<rscale>  0 0.94424101E+02</rscale>
<asrwt>0</asrwt>
<pdfrwt beam="1">  1        1 0.15774509E-01 0.94424101E+02</pdfrwt>
<pdfrwt beam="2">  1       -1 0.33444381E-02 0.94424101E+02</pdfrwt>
<totfact> 0.95322924E+04</totfact>
</mgrwt>
</event>
<event>
 7    1  0.3565607E-009  0.9199095E+02  0.7818608E-02  0.1298101E+00
          1   -1    0    0  501    0  0.00000000000E+00  0.00000000000E+00  0.97159841828E+03  0.97159841830E+03  0.50400000000E-02 0. -1.
         -1   -1    0    0    0  501 -0.00000000000E+00 -0.00000000000E+00 -0.21774231886E+01  0.21774290216E+01  0.50400000000E-02 0.  1.
         23    2    1    2    0    0 -0.35527136788E-14  0.00000000000E+00  0.96942099510E+03  0.97377584732E+03  0.91990951128E+02 0.  0.
    9000005    2    3    3    0    0  0.23301657228E+02  0.51229717116E+01  0.90006481854E+03  0.90043083184E+03  0.94759322516E+01 0.  0.
         22    1    3    3    0    0 -0.23301657228E+02 -0.51229717116E+01  0.69356176560E+02  0.73345015480E+02  0.00000000000E+00 0.  1.
         22    1    4    4    0    0  0.20656288262E+02  0.75644076744E+01  0.74789380132E+03  0.74821724155E+03  0.00000000000E+00 0.  1.
         22    1    4    4    0    0  0.26453689657E+01 -0.24414359628E+01  0.15217101722E+03  0.15221359029E+03  0.00000000000E+00 0.  1.
<mgrwt>
<rscale>  0 0.91990951E+02</rscale>
<asrwt>0</asrwt>
<pdfrwt beam="1">  1        1 0.14947677E+00 0.91990951E+02</pdfrwt>
<pdfrwt beam="2">  1       -1 0.33498844E-03 0.91990951E+02</pdfrwt>
<totfact> 0.13382383E+05</totfact>
</mgrwt>
</event>
<event>
 7    1  0.3565607E-009  0.9117655E+02  0.7818608E-02  0.1300027E+00
          1   -1    0    0  501    0  0.00000000000E+00  0.00000000000E+00  0.12812456701E+03  0.12812456711E+03  0.50400000000E-02 0. -1.
         -1   -1    0    0    0  501 -0.00000000000E+00 -0.00000000000E+00 -0.16220859406E+02  0.16220860189E+02  0.50400000000E-02 0.  1.
         23    2    1    2    0    0  0.00000000000E+00  0.00000000000E+00  0.11190370760E+03  0.14434542730E+03  0.91176546361E+02 0.  0.
    9000005    2    3    3    0    0 -0.20428192950E+02  0.47890648255E+01 -0.77204330493E+01  0.22895103149E+02  0.49329963112E+01 0.  0.
         22    1    3    3    0    0  0.20428192950E+02 -0.47890648255E+01  0.11962414065E+03  0.12145032415E+03  0.00000000000E+00 0. -1.
         22    1    4    4    0    0 -0.78455409081E+01  0.88341547098E-01 -0.11087614680E+01  0.79239932081E+01  0.00000000000E+00 0. -1.
         22    1    4    4    0    0 -0.12582652042E+02  0.47007232784E+01 -0.66116715813E+01  0.14971109940E+02  0.00000000000E+00 0. -1.
<mgrwt>
<rscale>  0 0.91176546E+02</rscale>
<asrwt>0</asrwt>
<pdfrwt beam="1">  1        1 0.19711472E-01 0.91176546E+02</pdfrwt>
<pdfrwt beam="2">  1       -1 0.24955169E-02 0.91176546E+02</pdfrwt>
<totfact> 0.10898656E+05</totfact>
</mgrwt>
</event>
<event>
 7    1  0.3565607E-009  0.9020096E+02  0.7818608E-02  0.1302366E+00
          1   -1    0    0  501    0  0.00000000000E+00  0.00000000000E+00  0.40989289440E+01  0.40989320426E+01  0.50400000000E-02 0. -1.
         -1   -1    0    0    0  501 -0.00000000000E+00 -0.00000000000E+00 -0.49623999913E+03  0.49623999915E+03  0.50400000000E-02 0.  1.
         23    2    1    2    0    0 -0.88817841970E-15  0.00000000000E+00 -0.49214107018E+03  0.50033893119E+03  0.90200959577E+02 0.  0.
    9000005    2    3    3    0    0 -0.55977645997E+01  0.17166171627E+02 -0.47486056393E+03  0.47534636603E+03  0.11644746106E+02 0.  0.
         22    1    3    3    0    0  0.55977645997E+01 -0.17166171627E+02 -0.17280506255E+02  0.24992565160E+02  0.00000000000E+00 0. -1.
         22    1    4    4    0    0 -0.63302418734E+01  0.17855173894E+02 -0.47006118610E+03  0.47044276790E+03  0.00000000000E+00 0.  1.
         22    1    4    4    0    0  0.73247727366E+00 -0.68900226630E+00 -0.47993778287E+01  0.49035981301E+01  0.00000000000E+00 0.  1.
<mgrwt>
<rscale>  0 0.90200960E+02</rscale>
<asrwt>0</asrwt>
<pdfrwt beam="1">  1        1 0.63060509E-03 0.90200960E+02</pdfrwt>
<pdfrwt beam="2">  1       -1 0.76344568E-01 0.90200960E+02</pdfrwt>
<totfact> 0.48613309E+04</totfact>
</mgrwt>
</event>
<event>
 7    1  0.3565607E-009  0.8819695E+02  0.7818608E-02  0.1307278E+00
         -1   -1    0    0    0  501 -0.00000000000E+00  0.00000000000E+00  0.32571645247E+02  0.32571645637E+02  0.50400000000E-02 0.  1.
          1   -1    0    0  501    0  0.00000000000E+00 -0.00000000000E+00 -0.59704547626E+02  0.59704547839E+02  0.50400000000E-02 0. -1.
         23    2    1    2    0    0  0.00000000000E+00 -0.35527136788E-14 -0.27132902379E+02  0.92276193476E+02  0.88196947175E+02 0.  0.
    9000005    2    3    3    0    0  0.27841362456E+02 -0.24231618288E+02 -0.38652397460E+02  0.53610814192E+02  0.42188601190E+01 0.  0.
         22    1    3    3    0    0 -0.27841362456E+02  0.24231618288E+02  0.11519495081E+02  0.38665379284E+02  0.00000000000E+00 0.  1.
         22    1    4    4    0    0  0.17254907311E+01 -0.62167268420E+00 -0.11121493497E+01  0.21449175661E+01  0.00000000000E+00 0.  1.
         22    1    4    4    0    0  0.26115871725E+02 -0.23609945603E+02 -0.37540248110E+02  0.51465896626E+02  0.00000000000E+00 0.  1.
<mgrwt>
<rscale>  0 0.88196947E+02</rscale>
<asrwt>0</asrwt>
<pdfrwt beam="2">  1        1 0.91853151E-02 0.88196947E+02</pdfrwt>
<pdfrwt beam="1">  1       -1 0.50110224E-02 0.88196947E+02</pdfrwt>
<totfact> 0.10556653E+05</totfact>
</mgrwt>
</event>
<event>
 7    1  0.3565607E-009  0.9309188E+02  0.7818608E-02  0.1295532E+00
          1   -1    0    0  501    0  0.00000000000E+00  0.00000000000E+00  0.11600551583E+03  0.11600551594E+03  0.50400000000E-02 0. -1.
         -1   -1    0    0    0  501 -0.00000000000E+00 -0.00000000000E+00 -0.18676047013E+02  0.18676047693E+02  0.50400000000E-02 0.  1.
         23    2    1    2    0    0 -0.71054273576E-14  0.00000000000E+00  0.97329468816E+02  0.13468156363E+03  0.93091879787E+02 0.  0.
    9000005    2    3    3    0    0  0.43209543384E+02  0.11685641247E+02  0.64531683798E+02  0.79190000733E+02  0.10153775233E+02 0.  0.
         22    1    3    3    0    0 -0.43209543384E+02 -0.11685641247E+02  0.32797785018E+02  0.55491562898E+02  0.00000000000E+00 0.  1.
         22    1    4    4    0    0  0.97404917753E+01 -0.51627956067E+00  0.93729039763E+01  0.13527566431E+02  0.00000000000E+00 0. -1.
         22    1    4    4    0    0  0.33469051609E+02  0.12201920807E+02  0.55158779822E+02  0.65662434302E+02  0.00000000000E+00 0. -1.
<mgrwt>
<rscale>  0 0.93091880E+02</rscale>
<asrwt>0</asrwt>
<pdfrwt beam="1">  1        1 0.17847003E-01 0.93091880E+02</pdfrwt>
<pdfrwt beam="2">  1       -1 0.28732380E-02 0.93091880E+02</pdfrwt>
<totfact> 0.10122102E+05</totfact>
</mgrwt>
</event>
<event>
 7    1  0.3565607E-009  0.9153106E+02  0.7818608E-02  0.1299186E+00
          1   -1    0    0  501    0  0.00000000000E+00  0.00000000000E+00  0.32730258444E+02  0.32730258832E+02  0.50400000000E-02 0. -1.
         -1   -1    0    0    0  501 -0.00000000000E+00 -0.00000000000E+00 -0.63992274488E+02  0.63992274687E+02  0.50400000000E-02 0.  1.
         23    2    1    2    0    0  0.00000000000E+00  0.00000000000E+00 -0.31262016045E+02  0.96722533518E+02  0.91531059445E+02 0.  0.
    9000005    2    3    3    0    0 -0.51954264193E+01 -0.12869555957E+02  0.28970181920E+02  0.34912052224E+02  0.13673405713E+02 0.  0.
         22    1    3    3    0    0  0.51954264193E+01  0.12869555957E+02 -0.60232197965E+02  0.61810481295E+02  0.00000000000E+00 0.  1.
         22    1    4    4    0    0  0.34466196659E+00  0.27989663777E+01  0.34249370188E+01  0.44365750572E+01  0.00000000000E+00 0.  1.
         22    1    4    4    0    0 -0.55400883858E+01 -0.15668522335E+02  0.25545244901E+02  0.30475477167E+02  0.00000000000E+00 0.  1.
<mgrwt>
<rscale>  0 0.91531059E+02</rscale>
<asrwt>0</asrwt>
<pdfrwt beam="1">  1        1 0.50354244E-02 0.91531059E+02</pdfrwt>
<pdfrwt beam="2">  1       -1 0.98449653E-02 0.91531059E+02</pdfrwt>
<totfact> 0.86927335E+04</totfact>
</mgrwt>
</event>
<event>
 7    1  0.3565607E-009  0.9188604E+02  0.7818608E-02  0.1298348E+00
          1   -1    0    0  501    0  0.00000000000E+00  0.00000000000E+00  0.24513688752E+03  0.24513688757E+03  0.50400000000E-02 0. -1.
         -1   -1    0    0    0  501 -0.00000000000E+00 -0.00000000000E+00 -0.86105393788E+01  0.86105408538E+01  0.50400000000E-02 0.  1.
         23    2    1    2    0    0  0.00000000000E+00  0.00000000000E+00  0.23652634814E+03  0.25374742842E+03  0.91886038480E+02 0.  0.
    9000005    2    3    3    0    0 -0.18706873250E+02 -0.25345419396E+02  0.20913156299E+03  0.21200043279E+03  0.14691340066E+02 0.  0.
         22    1    3    3    0    0  0.18706873250E+02  0.25345419396E+02  0.27394785150E+02  0.41746995635E+02  0.00000000000E+00 0.  1.
         22    1    4    4    0    0 -0.11490210436E+02 -0.16267015559E+02  0.17067983701E+03  0.17183785233E+03  0.00000000000E+00 0.  1.
         22    1    4    4    0    0 -0.72166628143E+01 -0.90784038373E+01  0.38451725975E+02  0.40162580456E+02  0.00000000000E+00 0.  1.
<mgrwt>
<rscale>  0 0.91886038E+02</rscale>
<asrwt>0</asrwt>
<pdfrwt beam="1">  1        1 0.37713371E-01 0.91886038E+02</pdfrwt>
<pdfrwt beam="2">  1       -1 0.13246984E-02 0.91886038E+02</pdfrwt>
<totfact> 0.12067013E+05</totfact>
</mgrwt>
</event>
<event>
 7    1  0.3565607E-009  0.9343335E+02  0.7818608E-02  0.1294744E+00
         -1   -1    0    0    0  501 -0.00000000000E+00  0.00000000000E+00  0.14960391933E+03  0.14960391942E+03  0.50400000000E-02 0.  1.
          1   -1    0    0  501    0  0.00000000000E+00 -0.00000000000E+00 -0.14588171244E+02  0.14588172115E+02  0.50400000000E-02 0. -1.
         23    2    1    2    0    0 -0.44408920985E-15  0.00000000000E+00  0.13501574809E+03  0.16419209153E+03  0.93433348918E+02 0.  0.
    9000005    2    3    3    0    0  0.12979762436E+01  0.28642595398E+02  0.13156074040E+03  0.13531268552E+03  0.13386987504E+02 0.  0.
         22    1    3    3    0    0 -0.12979762436E+01 -0.28642595398E+02  0.34550076869E+01  0.28879406011E+02  0.00000000000E+00 0. -1.
         22    1    4    4    0    0 -0.49063914727E+01  0.13028691783E+02  0.43840875788E+02  0.45998281237E+02  0.00000000000E+00 0.  1.
         22    1    4    4    0    0  0.62043677163E+01  0.15613903615E+02  0.87719864614E+02  0.89314404285E+02  0.00000000000E+00 0.  1.
<mgrwt>
<rscale>  0 0.93433349E+02</rscale>
<asrwt>0</asrwt>
<pdfrwt beam="2">  1        1 0.22443341E-02 0.93433349E+02</pdfrwt>
<pdfrwt beam="1">  1       -1 0.23015988E-01 0.93433349E+02</pdfrwt>
<totfact> 0.70227409E+04</totfact>
</mgrwt>
</event>
<event>
 7    1  0.3565607E-009  0.8845470E+02  0.7818608E-02  0.1306638E+00
         -1   -1    0    0    0  501 -0.00000000000E+00  0.00000000000E+00  0.69270748462E+01  0.69270766797E+01  0.50400000000E-02 0.  1.
          1   -1    0    0  501    0  0.00000000000E+00 -0.00000000000E+00 -0.28237868011E+03  0.28237868015E+03  0.50400000000E-02 0. -1.
         23    2    1    2    0    0  0.71054273576E-14  0.00000000000E+00 -0.27545160526E+03  0.28930575683E+03  0.88454700809E+02 0.  0.
    9000005    2    3    3    0    0  0.36510874976E+02  0.60411298065E+01 -0.67074114836E+02  0.77667580321E+02  0.12797535351E+02 0.  0.
         22    1    3    3    0    0 -0.36510874976E+02 -0.60411298065E+01 -0.20837749043E+03  0.21163817651E+03  0.00000000000E+00 0. -1.
         22    1    4    4    0    0  0.34209295767E+02  0.64369000091E+01 -0.66787709834E+02  0.75314724878E+02  0.00000000000E+00 0. -1.
         22    1    4    4    0    0  0.23015792093E+01 -0.39577020265E+00 -0.28640500166E+00  0.23528554429E+01  0.00000000000E+00 0. -1.
<mgrwt>
<rscale>  0 0.88454701E+02</rscale>
<asrwt>0</asrwt>
<pdfrwt beam="2">  1        1 0.43442865E-01 0.88454701E+02</pdfrwt>
<pdfrwt beam="1">  1       -1 0.10657042E-02 0.88454701E+02</pdfrwt>
<totfact> 0.13727815E+05</totfact>
</mgrwt>
</event>
<event>
 6    1  0.3565607E-009  0.1354718E+03  0.7818608E-02  0.1219555E+00
          1   -1    0    0  501    0  0.00000000000E+00  0.00000000000E+00  0.35590260120E+02  0.35590260477E+02  0.50400000000E-02 0. -1.
         -1   -1    0    0    0  501 -0.00000000000E+00 -0.00000000000E+00 -0.12891602458E+03  0.12891602468E+03  0.50400000000E-02 0.  1.
    9000005    2    1    2    0    0 -0.22889795258E+01 -0.65485118219E+02 -0.29386095042E+02  0.72953997032E+02  0.12853130580E+02 0.  0.
         22    1    1    2    0    0  0.22889795258E+01  0.65485118219E+02 -0.63939669417E+02  0.91552288123E+02  0.00000000000E+00 0. -1.
         22    1    3    3    0    0 -0.70786986466E+01 -0.50233635622E+02 -0.23629421141E+02  0.55963163471E+02  0.00000000000E+00 0.  1.
         22    1    3    3    0    0  0.47897191208E+01 -0.15251482597E+02 -0.57566739016E+01  0.16990833561E+02  0.00000000000E+00 0.  1.
<mgrwt>
<rscale>  0 0.13547184E+03</rscale>
<asrwt>0</asrwt>
<pdfrwt beam="1">  1        1 0.54754247E-02 0.13547184E+03</pdfrwt>
<pdfrwt beam="2">  1       -1 0.19833234E-01 0.13547184E+03</pdfrwt>
<totfact> 0.27575872E+04</totfact>
</mgrwt>
</event>
<event>
 7    1  0.3565607E-009  0.9132049E+02  0.7818608E-02  0.1299685E+00
          1   -1    0    0  501    0  0.00000000000E+00  0.00000000000E+00  0.70916162610E+02  0.70916162789E+02  0.50400000000E-02 0. -1.
         -1   -1    0    0    0  501 -0.00000000000E+00 -0.00000000000E+00 -0.29398912676E+02  0.29398913108E+02  0.50400000000E-02 0.  1.
         23    2    1    2    0    0  0.00000000000E+00  0.00000000000E+00  0.41517249934E+02  0.10031507590E+03  0.91320492828E+02 0.  0.
    9000005    2    3    3    0    0  0.64248188520E+01  0.29392171022E+02 -0.16566314225E+02  0.34901939296E+02  0.62068176232E+01 0.  0.
         22    1    3    3    0    0 -0.64248188520E+01 -0.29392171022E+02  0.58083564159E+02  0.65413136601E+02  0.00000000000E+00 0. -1.
         22    1    4    4    0    0  0.63183938043E+00  0.16752490217E+02 -0.80486428792E+01  0.18596392168E+02  0.00000000000E+00 0.  1.
         22    1    4    4    0    0  0.57929794716E+01  0.12639680805E+02 -0.85176713457E+01  0.16305547128E+02  0.00000000000E+00 0.  1.
<mgrwt>
<rscale>  0 0.91320493E+02</rscale>
<asrwt>0</asrwt>
<pdfrwt beam="1">  1        1 0.10910179E-01 0.91320493E+02</pdfrwt>
<pdfrwt beam="2">  1       -1 0.45229097E-02 0.91320493E+02</pdfrwt>
<totfact> 0.98436793E+04</totfact>
</mgrwt>
</event>
<event>
 7    1  0.3565607E-009  0.8940320E+02  0.7818608E-02  0.1304303E+00
         -1   -1    0    0    0  501 -0.00000000000E+00  0.00000000000E+00  0.11743365748E+03  0.11743365759E+03  0.50400000000E-02 0.  1.
          1   -1    0    0  501    0  0.00000000000E+00 -0.00000000000E+00 -0.17015844905E+02  0.17015845651E+02  0.50400000000E-02 0. -1.
         23    2    1    2    0    0  0.00000000000E+00  0.00000000000E+00  0.10041781258E+03  0.13444950324E+03  0.89403198149E+02 0.  0.
    9000005    2    3    3    0    0  0.34187009895E+02 -0.81015785678E+01  0.90992410350E+02  0.98073337585E+02  0.10216339014E+02 0.  0.
         22    1    3    3    0    0 -0.34187009895E+02  0.81015785678E+01  0.94254022297E+01  0.36376165659E+02  0.00000000000E+00 0. -1.
         22    1    4    4    0    0  0.28133076988E+02 -0.23486523106E+01  0.69421997436E+02  0.74942644179E+02  0.00000000000E+00 0. -1.
         22    1    4    4    0    0  0.60539329073E+01 -0.57529262572E+01  0.21570412914E+02  0.23130693406E+02  0.00000000000E+00 0. -1.
<mgrwt>
<rscale>  0 0.89403198E+02</rscale>
<asrwt>0</asrwt>
<pdfrwt beam="2">  1        1 0.26178224E-02 0.89403198E+02</pdfrwt>
<pdfrwt beam="1">  1       -1 0.18066716E-01 0.89403198E+02</pdfrwt>
<totfact> 0.82978712E+04</totfact>
</mgrwt>
</event>
<event>
 7    1  0.3565607E-009  0.9088660E+02  0.7818608E-02  0.1300719E+00
         -1   -1    0    0    0  501 -0.00000000000E+00  0.00000000000E+00  0.57070720368E+01  0.57070742623E+01  0.50400000000E-02 0.  1.
          1   -1    0    0  501    0  0.00000000000E+00 -0.00000000000E+00 -0.36184810536E+03  0.36184810539E+03  0.50400000000E-02 0. -1.
         23    2    1    2    0    0  0.17763568394E-14 -0.88817841970E-15 -0.35614103332E+03  0.36755517965E+03  0.90886602293E+02 0.  0.
    9000005    2    3    3    0    0  0.10860279712E+02 -0.79239735725E+01 -0.35355179685E+03  0.35386433680E+03  0.63530124432E+01 0.  0.
         22    1    3    3    0    0 -0.10860279712E+02  0.79239735725E+01 -0.25892364658E+01  0.13690842855E+02  0.00000000000E+00 0.  1.
         22    1    4    4    0    0  0.69717967765E+01 -0.38993834257E+01 -0.27376682057E+03  0.27388333864E+03  0.00000000000E+00 0. -1.
         22    1    4    4    0    0  0.38884829354E+01 -0.40245901468E+01 -0.79784976283E+02  0.79980998155E+02  0.00000000000E+00 0. -1.
<mgrwt>
<rscale>  0 0.90886602E+02</rscale>
<asrwt>0</asrwt>
<pdfrwt beam="2">  1        1 0.55668921E-01 0.90886602E+02</pdfrwt>
<pdfrwt beam="1">  1       -1 0.87801154E-03 0.90886602E+02</pdfrwt>
<totfact> 0.13373934E+05</totfact>
</mgrwt>
</event>
<event>
 7    1  0.3565607E-009  0.8990887E+02  0.7818608E-02  0.1303073E+00
         -1   -1    0    0    0  501 -0.00000000000E+00  0.00000000000E+00  0.50118471078E+01  0.50118496420E+01  0.50400000000E-02 0.  1.
          1   -1    0    0  501    0  0.00000000000E+00 -0.00000000000E+00 -0.40322474243E+03  0.40322474247E+03  0.50400000000E-02 0. -1.
         23    2    1    2    0    0  0.00000000000E+00  0.00000000000E+00 -0.39821289533E+03  0.40823659211E+03  0.89908871261E+02 0.  0.
    9000005    2    3    3    0    0 -0.35150474667E+02  0.22133468971E+02 -0.27118609709E+03  0.27459059034E+03  0.11517236250E+02 0.  0.
         22    1    3    3    0    0  0.35150474667E+02 -0.22133468971E+02 -0.12702679824E+03  0.13364600177E+03  0.00000000000E+00 0.  1.
         22    1    4    4    0    0 -0.27416725796E+02  0.22097344128E+02 -0.21264928454E+03  0.21554509432E+03  0.00000000000E+00 0. -1.
         22    1    4    4    0    0 -0.77337488713E+01  0.36124842986E-01 -0.58536812552E+02  0.59045496021E+02  0.00000000000E+00 0. -1.
<mgrwt>
<rscale>  0 0.89908871E+02</rscale>
<asrwt>0</asrwt>
<pdfrwt beam="2">  1        1 0.62034551E-01 0.89908871E+02</pdfrwt>
<pdfrwt beam="1">  1       -1 0.77105391E-03 0.89908871E+02</pdfrwt>
<totfact> 0.14017944E+05</totfact>
</mgrwt>
</event>
<event>
 7    1  0.3565607E-009  0.9332234E+02  0.7818608E-02  0.1295000E+00
         -1   -1    0    0    0  501 -0.00000000000E+00  0.00000000000E+00  0.28250099262E+02  0.28250099712E+02  0.50400000000E-02 0.  1.
          1   -1    0    0  501    0  0.00000000000E+00 -0.00000000000E+00 -0.77071047018E+02  0.77071047183E+02  0.50400000000E-02 0. -1.
         23    2    1    2    0    0  0.00000000000E+00  0.35527136788E-14 -0.48820947756E+02  0.10532114689E+03  0.93322339466E+02 0.  0.
    9000005    2    3    3    0    0  0.96789135797E+01 -0.21014673677E+02  0.19219530021E+02  0.33454572648E+02  0.14646508766E+02 0.  0.
         22    1    3    3    0    0 -0.96789135797E+01  0.21014673677E+02 -0.68040477777E+02  0.71866574246E+02  0.00000000000E+00 0. -1.
         22    1    4    4    0    0  0.10395091187E+02 -0.22917179785E+02  0.18712620977E+02  0.31359483954E+02  0.00000000000E+00 0.  1.
         22    1    4    4    0    0 -0.71617760769E+00  0.19025061079E+01  0.50690904432E+00  0.20950886940E+01  0.00000000000E+00 0.  1.
<mgrwt>
<rscale>  0 0.93322339E+02</rscale>
<asrwt>0</asrwt>
<pdfrwt beam="2">  1        1 0.11857084E-01 0.93322339E+02</pdfrwt>
<pdfrwt beam="1">  1       -1 0.43461692E-02 0.93322339E+02</pdfrwt>
<totfact> 0.93937559E+04</totfact>
</mgrwt>
</event>
<event>
 7    1  0.3565607E-009  0.9084492E+02  0.7818608E-02  0.1300818E+00
         -1   -1    0    0    0  501 -0.00000000000E+00  0.00000000000E+00  0.36734189278E+01  0.36734223852E+01  0.50400000000E-02 0.  1.
          1   -1    0    0  501    0  0.00000000000E+00 -0.00000000000E+00 -0.56165625768E+03  0.56165625770E+03  0.50400000000E-02 0. -1.
         23    2    1    2    0    0  0.00000000000E+00  0.00000000000E+00 -0.55798283875E+03  0.56532968009E+03  0.90844916458E+02 0.  0.
    9000005    2    3    3    0    0  0.24765205041E+02 -0.20605005375E+02 -0.47695723559E+03  0.47813432474E+03  0.92922699641E+01 0.  0.
         22    1    3    3    0    0 -0.24765205041E+02  0.20605005375E+02 -0.81025603160E+02  0.87195355351E+02  0.00000000000E+00 0.  1.
         22    1    4    4    0    0  0.83185986222E+01 -0.12449678549E+02 -0.24041432257E+03  0.24088013633E+03  0.00000000000E+00 0.  1.
         22    1    4    4    0    0  0.16446606419E+02 -0.81553268265E+01 -0.23654291302E+03  0.23725418841E+03  0.00000000000E+00 0.  1.
<mgrwt>
<rscale>  0 0.90844916E+02</rscale>
<asrwt>0</asrwt>
<pdfrwt beam="2">  1        1 0.86408587E-01 0.90844916E+02</pdfrwt>
<pdfrwt beam="1">  1       -1 0.56514208E-03 0.90844916E+02</pdfrwt>
<totfact> 0.14228418E+05</totfact>
</mgrwt>
</event>
<event>
 7    1  0.3565607E-009  0.9295586E+02  0.7818608E-02  0.1295847E+00
         -1   -1    0    0    0  501 -0.00000000000E+00  0.00000000000E+00  0.89980470357E+01  0.89980484472E+01  0.50400000000E-02 0.  1.
          1   -1    0    0  501    0  0.00000000000E+00 -0.00000000000E+00 -0.24007408403E+03  0.24007408408E+03  0.50400000000E-02 0. -1.
         23    2    1    2    0    0  0.00000000000E+00  0.00000000000E+00 -0.23107603699E+03  0.24907213253E+03  0.92955862268E+02 0.  0.
    9000005    2    3    3    0    0  0.12406760672E+02  0.11123950892E+02 -0.23158147491E+03  0.23240103594E+03  0.10128770485E+02 0.  0.
         22    1    3    3    0    0 -0.12406760672E+02 -0.11123950892E+02  0.50543791979E+00  0.16671096584E+02  0.00000000000E+00 0.  1.
         22    1    4    4    0    0  0.64352365518E+01  0.63445209351E+01 -0.62857462965E+02  0.63503746864E+02  0.00000000000E+00 0.  1.
         22    1    4    4    0    0  0.59715241204E+01  0.47794299571E+01 -0.16872401194E+03  0.16889728908E+03  0.00000000000E+00 0.  1.
<mgrwt>
<rscale>  0 0.92955862E+02</rscale>
<asrwt>0</asrwt>
<pdfrwt beam="2">  1        1 0.36934470E-01 0.92955862E+02</pdfrwt>
<pdfrwt beam="1">  1       -1 0.13843152E-02 0.92955862E+02</pdfrwt>
<totfact> 0.11650967E+05</totfact>
</mgrwt>
</event>
<event>
 7    1  0.3565607E-009  0.8647622E+02  0.7818608E-02  0.1311617E+00
         -1   -1    0    0    0  501 -0.00000000000E+00  0.00000000000E+00  0.25277039880E+02  0.25277040382E+02  0.50400000000E-02 0.  1.
          1   -1    0    0  501    0  0.00000000000E+00 -0.00000000000E+00 -0.73961746247E+02  0.73961746419E+02  0.50400000000E-02 0. -1.
         23    2    1    2    0    0 -0.17763568394E-14  0.00000000000E+00 -0.48684706368E+02  0.99238786801E+02  0.86476217376E+02 0.  0.
    9000005    2    3    3    0    0 -0.94017756826E+01  0.12132158902E+02  0.21868976688E+02  0.27034875146E+02  0.41291242574E+01 0.  0.
         22    1    3    3    0    0  0.94017756826E+01 -0.12132158902E+02 -0.70553683056E+02  0.72203911656E+02  0.00000000000E+00 0. -1.
         22    1    4    4    0    0 -0.13148563501E+01  0.67058549485E+00  0.68387986337E+00  0.16267217939E+01  0.00000000000E+00 0. -1.
         22    1    4    4    0    0 -0.80869193325E+01  0.11461573407E+02  0.21185096825E+02  0.25408153352E+02  0.00000000000E+00 0. -1.
<mgrwt>
<rscale>  0 0.86476217E+02</rscale>
<asrwt>0</asrwt>
<pdfrwt beam="2">  1        1 0.11378730E-01 0.86476217E+02</pdfrwt>
<pdfrwt beam="1">  1       -1 0.38887755E-02 0.86476217E+02</pdfrwt>
<totfact> 0.11504286E+05</totfact>
</mgrwt>
</event>
<event>
 7    1  0.3565607E-009  0.9051439E+02  0.7818608E-02  0.1301611E+00
         -1   -1    0    0    0  501 -0.00000000000E+00  0.00000000000E+00  0.85252425027E+01  0.85252439925E+01  0.50400000000E-02 0.  1.
          1   -1    0    0  501    0  0.00000000000E+00 -0.00000000000E+00 -0.24025282299E+03  0.24025282304E+03  0.50400000000E-02 0. -1.
         23    2    1    2    0    0  0.00000000000E+00  0.00000000000E+00 -0.23172758049E+03  0.24877806703E+03  0.90514391559E+02 0.  0.
    9000005    2    3    3    0    0  0.25122289869E+02  0.10620664546E+01 -0.21892887526E+03  0.22056345577E+03  0.92805261453E+01 0.  0.
         22    1    3    3    0    0 -0.25122289869E+02 -0.10620664546E+01 -0.12798705231E+02  0.28214611268E+02  0.00000000000E+00 0.  1.
         22    1    4    4    0    0  0.14086593563E+01  0.20677510393E+00 -0.45098255772E+02  0.45120724183E+02  0.00000000000E+00 0. -1.
         22    1    4    4    0    0  0.23713630513E+02  0.85529135069E+00 -0.17383061948E+03  0.17544273158E+03  0.00000000000E+00 0. -1.
<mgrwt>
<rscale>  0 0.90514392E+02</rscale>
<asrwt>0</asrwt>
<pdfrwt beam="2">  1        1 0.36961968E-01 0.90514392E+02</pdfrwt>
<pdfrwt beam="1">  1       -1 0.13115761E-02 0.90514392E+02</pdfrwt>
<totfact> 0.12512860E+05</totfact>
</mgrwt>
</event>
<event>
 7    1  0.3565607E-009  0.9245767E+02  0.7818608E-02  0.1297007E+00
          1   -1    0    0  501    0  0.00000000000E+00  0.00000000000E+00  0.17755194051E+04  0.17755194051E+04  0.50400000000E-02 0. -1.
         -1   -1    0    0    0  501 -0.00000000000E+00 -0.00000000000E+00 -0.12036453097E+01  0.12036558616E+01  0.50400000000E-02 0.  1.
         23    2    1    2    0    0  0.00000000000E+00  0.00000000000E+00  0.17743157598E+04  0.17767230610E+04  0.92457665654E+02 0.  0.
    9000005    2    3    3    0    0  0.15148675728E+02 -0.19985465569E+02  0.16328999752E+04  0.16331008992E+04  0.52265534147E+01 0.  0.
         22    1    3    3    0    0 -0.15148675728E+02  0.19985465569E+02  0.14141578465E+03  0.14362216179E+03  0.00000000000E+00 0.  1.
         22    1    4    4    0    0  0.73601198722E+01 -0.12799369384E+02  0.83458876479E+03  0.83471935496E+03  0.00000000000E+00 0.  1.
         22    1    4    4    0    0  0.77885558558E+01 -0.71860961857E+01  0.79831121036E+03  0.79838154423E+03  0.00000000000E+00 0.  1.
<mgrwt>
<rscale>  0 0.92457666E+02</rscale>
<asrwt>0</asrwt>
<pdfrwt beam="1">  1        1 0.27315557E+00 0.92457666E+02</pdfrwt>
<pdfrwt beam="2">  1       -1 0.18517787E-03 0.92457666E+02</pdfrwt>
<totfact> 0.90102985E+04</totfact>
</mgrwt>
</event>
<event>
 7    1  0.3565607E-009  0.9211457E+02  0.7818608E-02  0.1297810E+00
         -1   -1    0    0    0  501 -0.00000000000E+00  0.00000000000E+00  0.50876476699E+02  0.50876476948E+02  0.50400000000E-02 0.  1.
          1   -1    0    0  501    0  0.00000000000E+00 -0.00000000000E+00 -0.41694581704E+02  0.41694582009E+02  0.50400000000E-02 0. -1.
         23    2    1    2    0    0  0.00000000000E+00 -0.35527136788E-14  0.91818949947E+01  0.92571058957E+02  0.92114568667E+02 0.  0.
    9000005    2    3    3    0    0  0.84824495745E+01  0.18650152152E+02 -0.35223997216E+02  0.43666423296E+02  0.15692240678E+02 0.  0.
         22    1    3    3    0    0 -0.84824495745E+01 -0.18650152152E+02  0.44405892211E+02  0.48904635661E+02  0.00000000000E+00 0.  1.
         22    1    4    4    0    0  0.33183587981E+01  0.36499356253E+01 -0.23311019066E+02  0.23827235364E+02  0.00000000000E+00 0.  1.
         22    1    4    4    0    0  0.51640907764E+01  0.15000216527E+02 -0.11912978150E+02  0.19839187932E+02  0.00000000000E+00 0.  1.
<mgrwt>
<rscale>  0 0.92114569E+02</rscale>
<asrwt>0</asrwt>
<pdfrwt beam="2">  1        1 0.64145511E-02 0.92114569E+02</pdfrwt>
<pdfrwt beam="1">  1       -1 0.78271502E-02 0.92114569E+02</pdfrwt>
<totfact> 0.88637130E+04</totfact>
</mgrwt>
</event>
<event>
 7    1  0.3565607E-009  0.9246537E+02  0.7818608E-02  0.1296989E+00
         -1   -1    0    0    0  501 -0.00000000000E+00  0.00000000000E+00  0.19220425675E+03  0.19220425682E+03  0.50400000000E-02 0.  1.
          1   -1    0    0  501    0  0.00000000000E+00 -0.00000000000E+00 -0.11120779089E+02  0.11120780231E+02  0.50400000000E-02 0. -1.
         23    2    1    2    0    0 -0.88817841970E-15  0.71054273576E-14  0.18108347766E+03  0.20332503705E+03  0.92465370860E+02 0.  0.
    9000005    2    3    3    0    0  0.75870596797E+01 -0.37308158606E+02  0.14780500824E+03  0.15275905342E+03  0.62885425615E+01 0.  0.
         22    1    3    3    0    0 -0.75870596797E+01  0.37308158606E+02  0.33278469421E+02  0.50565983627E+02  0.00000000000E+00 0. -1.
         22    1    4    4    0    0 -0.15469465697E+00 -0.75836580458E+01  0.37364683822E+02  0.38126833031E+02  0.00000000000E+00 0.  1.
         22    1    4    4    0    0  0.77417543367E+01 -0.29724500561E+02  0.11044032442E+03  0.11463222039E+03  0.00000000000E+00 0.  1.
<mgrwt>
<rscale>  0 0.92465371E+02</rscale>
<asrwt>0</asrwt>
<pdfrwt beam="2">  1        1 0.17108893E-02 0.92465371E+02</pdfrwt>
<pdfrwt beam="1">  1       -1 0.29569883E-01 0.92465371E+02</pdfrwt>
<totfact> 0.67684815E+04</totfact>
</mgrwt>
</event>
<event>
 7    1  0.3565607E-009  0.9906207E+02  0.7818608E-02  0.1282281E+00
          1   -1    0    0  501    0  0.00000000000E+00  0.00000000000E+00  0.92664493120E+02  0.92664493257E+02  0.50400000000E-02 0. -1.
         -1   -1    0    0    0  501 -0.00000000000E+00 -0.00000000000E+00 -0.26475334001E+02  0.26475334481E+02  0.50400000000E-02 0.  1.
         23    2    1    2    0    0  0.00000000000E+00 -0.35527136788E-14  0.66189159119E+02  0.11913982774E+03  0.99062070282E+02 0.  0.
    9000005    2    3    3    0    0 -0.12383660710E+02 -0.31104910126E+02  0.76817959228E+02  0.84013742299E+02  0.60365179197E+01 0.  0.
         22    1    3    3    0    0  0.12383660710E+02  0.31104910126E+02 -0.10628800109E+02  0.35126085439E+02  0.00000000000E+00 0.  1.
         22    1    4    4    0    0 -0.41213937264E+01 -0.16069079315E+02  0.32456717801E+02  0.36450510651E+02  0.00000000000E+00 0. -1.
         22    1    4    4    0    0 -0.82622669835E+01 -0.15035830811E+02  0.44361241426E+02  0.47563231648E+02  0.00000000000E+00 0. -1.
<mgrwt>
<rscale>  0 0.99062070E+02</rscale>
<asrwt>0</asrwt>
<pdfrwt beam="1">  1        1 0.14256076E-01 0.99062070E+02</pdfrwt>
<pdfrwt beam="2">  1       -1 0.40731284E-02 0.99062070E+02</pdfrwt>
<totfact> 0.82116332E+04</totfact>
</mgrwt>
</event>
<event>
 7    1  0.3565607E-009  0.9245917E+02  0.7818608E-02  0.1297003E+00
         -1   -1    0    0    0  501 -0.00000000000E+00  0.00000000000E+00  0.39176087004E+01  0.39176119424E+01  0.50400000000E-02 0.  1.
          1   -1    0    0  501    0  0.00000000000E+00 -0.00000000000E+00 -0.54553013554E+03  0.54553013556E+03  0.50400000000E-02 0. -1.
         23    2    1    2    0    0  0.00000000000E+00  0.35527136788E-14 -0.54161252684E+03  0.54944774751E+03  0.92459169418E+02 0.  0.
    9000005    2    3    3    0    0 -0.22540445336E+02 -0.29652676744E+02 -0.43036804426E+03  0.43213326495E+03  0.11625499469E+02 0.  0.
         22    1    3    3    0    0  0.22540445336E+02  0.29652676744E+02 -0.11124448258E+03  0.11731448256E+03  0.00000000000E+00 0.  1.
         22    1    4    4    0    0 -0.19592210852E+02 -0.16857450142E+02 -0.29476980446E+03  0.29590077049E+03  0.00000000000E+00 0.  1.
         22    1    4    4    0    0 -0.29482344840E+01 -0.12795226602E+02 -0.13559823980E+03  0.13623249446E+03  0.00000000000E+00 0.  1.
<mgrwt>
<rscale>  0 0.92459169E+02</rscale>
<asrwt>0</asrwt>
<pdfrwt beam="2">  1        1 0.83927653E-01 0.92459169E+02</pdfrwt>
<pdfrwt beam="1">  1       -1 0.60270971E-03 0.92459169E+02</pdfrwt>
<totfact> 0.13544678E+05</totfact>
</mgrwt>
</event>
<event>
 7    1  0.3565607E-009  0.8881450E+02  0.7818608E-02  0.1305748E+00
          1   -1    0    0  501    0  0.00000000000E+00  0.00000000000E+00  0.90763619673E+02  0.90763619813E+02  0.50400000000E-02 0.  1.
         -1   -1    0    0    0  501 -0.00000000000E+00 -0.00000000000E+00 -0.21726807984E+02  0.21726808568E+02  0.50400000000E-02 0. -1.
         23    2    1    2    0    0  0.00000000000E+00 -0.35527136788E-14  0.69036811689E+02  0.11249042838E+03  0.88814498305E+02 0.  0.
    9000005    2    3    3    0    0 -0.35801770551E+01 -0.30494798366E+02 -0.28227350282E+01  0.34346043749E+02  0.15130515293E+02 0.  0.
         22    1    3    3    0    0  0.35801770551E+01  0.30494798366E+02  0.71859546717E+02  0.78144384632E+02  0.00000000000E+00 0.  1.
         22    1    4    4    0    0 -0.68802252163E+01 -0.10323766182E+02 -0.57929016108E+01  0.13692164047E+02  0.00000000000E+00 0.  1.
         22    1    4    4    0    0  0.33000481612E+01 -0.20171032184E+02  0.29701665826E+01  0.20653879702E+02  0.00000000000E+00 0.  1.
<mgrwt>
<rscale>  0 0.88814498E+02</rscale>
<asrwt>0</asrwt>
<pdfrwt beam="1">  1        1 0.13963634E-01 0.88814498E+02</pdfrwt>
<pdfrwt beam="2">  1       -1 0.33425858E-02 0.88814498E+02</pdfrwt>
<totfact> 0.11042997E+05</totfact>
</mgrwt>
</event>
<event>
 7    1  0.3565607E-009  0.9067367E+02  0.7818608E-02  0.1301228E+00
         -1   -1    0    0    0  501 -0.00000000000E+00  0.00000000000E+00  0.65896149339E+01  0.65896168613E+01  0.50400000000E-02 0.  1.
          1   -1    0    0  501    0  0.00000000000E+00 -0.00000000000E+00 -0.31191930161E+03  0.31191930165E+03  0.50400000000E-02 0. -1.
         23    2    1    2    0    0  0.71054273576E-14  0.35527136788E-14 -0.30532968668E+03  0.31850891851E+03  0.90673665449E+02 0.  0.
    9000005    2    3    3    0    0  0.37301404928E+02  0.24055653567E+02 -0.14622171636E+03  0.15332594270E+03  0.12569212115E+02 0.  0.
         22    1    3    3    0    0 -0.37301404928E+02 -0.24055653567E+02 -0.15910797032E+03  0.16518297581E+03  0.00000000000E+00 0.  1.
         22    1    4    4    0    0  0.25132391799E+01  0.18335223522E+01 -0.26612469016E+02  0.26793687363E+02  0.00000000000E+00 0.  1.
         22    1    4    4    0    0  0.34788165748E+02  0.22222131214E+02 -0.11960924734E+03  0.12653225534E+03  0.00000000000E+00 0.  1.
<mgrwt>
<rscale>  0 0.90673665E+02</rscale>
<asrwt>0</asrwt>
<pdfrwt beam="2">  1        1 0.47987574E-01 0.90673665E+02</pdfrwt>
<pdfrwt beam="1">  1       -1 0.10137873E-02 0.90673665E+02</pdfrwt>
<totfact> 0.13098652E+05</totfact>
</mgrwt>
</event>
<event>
 7    1  0.3611570E-009  0.9338962E+02  0.7818608E-02  0.1294845E+00
         -1   -1    0    0    0  501 -0.00000000000E+00  0.00000000000E+00  0.62840944117E+01  0.62840964328E+01  0.50400000000E-02 0.  1.
          1   -1    0    0  501    0  0.00000000000E+00 -0.00000000000E+00 -0.34697203997E+03  0.34697204000E+03  0.50400000000E-02 0. -1.
         23    2    1    2    0    0  0.00000000000E+00  0.00000000000E+00 -0.34068794555E+03  0.35325613644E+03  0.93389622996E+02 0.  0.
    9000005    2    3    3    0    0  0.37071852748E+02 -0.26606930856E+02 -0.16023461878E+03  0.16712270531E+03  0.13138285327E+02 0.  0.
         22    1    3    3    0    0 -0.37071852748E+02  0.26606930856E+02 -0.18045332678E+03  0.18613343112E+03  0.00000000000E+00 0. -1.
         22    1    4    4    0    0  0.31165885923E+02 -0.27150483155E+02 -0.14493672678E+03  0.15071534743E+03  0.00000000000E+00 0. -1.
         22    1    4    4    0    0  0.59059668248E+01  0.54355229895E+00 -0.15297891997E+02  0.16407357886E+02  0.00000000000E+00 0. -1.
<mgrwt>
<rscale>  0 0.93389623E+02</rscale>
<asrwt>0</asrwt>
<pdfrwt beam="2">  1        1 0.53380299E-01 0.93389623E+02</pdfrwt>
<pdfrwt beam="1">  1       -1 0.96678419E-03 0.93389623E+02</pdfrwt>
<totfact> 0.12348160E+05</totfact>
</mgrwt>
</event>
<event>
 7    1  0.3565607E-009  0.9243328E+02  0.7818608E-02  0.1297064E+00
          1   -1    0    0  501    0  0.00000000000E+00  0.00000000000E+00  0.37654082883E+03  0.37654082886E+03  0.50400000000E-02 0. -1.
         -1   -1    0    0    0  501 -0.00000000000E+00 -0.00000000000E+00 -0.56726321134E+01  0.56726343523E+01  0.50400000000E-02 0.  1.
         23    2    1    2    0    0 -0.17763568394E-14  0.00000000000E+00  0.37086819672E+03  0.38221346322E+03  0.92433284740E+02 0.  0.
    9000005    2    3    3    0    0  0.10117388286E+02  0.43815724184E+02  0.14501930469E+03  0.15193124232E+03  0.55067620614E+01 0.  0.
         22    1    3    3    0    0 -0.10117388286E+02 -0.43815724184E+02  0.22584889203E+03  0.23028222090E+03  0.00000000000E+00 0. -1.
         22    1    4    4    0    0  0.29292000341E+01  0.75089800160E+01  0.32329826424E+02  0.33319403811E+02  0.00000000000E+00 0.  1.
         22    1    4    4    0    0  0.71881882518E+01  0.36306744168E+02  0.11268947827E+03  0.11861183851E+03  0.00000000000E+00 0.  1.
<mgrwt>
<rscale>  0 0.92433285E+02</rscale>
<asrwt>0</asrwt>
<pdfrwt beam="1">  1        1 0.57929364E-01 0.92433285E+02</pdfrwt>
<pdfrwt beam="2">  1       -1 0.87271273E-03 0.92433285E+02</pdfrwt>
<totfact> 0.12875448E+05</totfact>
</mgrwt>
</event>
<event>
 7    1  0.3565607E-009  0.8839004E+02  0.7818608E-02  0.1306798E+00
         -1   -1    0    0    0  501 -0.00000000000E+00  0.00000000000E+00  0.21367837450E+02  0.21367838044E+02  0.50400000000E-02 0.  1.
          1   -1    0    0  501    0  0.00000000000E+00 -0.00000000000E+00 -0.91408393704E+02  0.91408393843E+02  0.50400000000E-02 0. -1.
         23    2    1    2    0    0  0.35527136788E-14  0.35527136788E-14 -0.70040556254E+02  0.11277623189E+03  0.88390038795E+02 0.  0.
    9000005    2    3    3    0    0 -0.28428447170E+02 -0.18007156633E+02 -0.69971482658E+02  0.79124499842E+02  0.15239546955E+02 0.  0.
         22    1    3    3    0    0  0.28428447170E+02  0.18007156633E+02 -0.69073596216E-01  0.33651732045E+02  0.00000000000E+00 0.  1.
         22    1    4    4    0    0 -0.21205329080E+02 -0.20213603680E+02 -0.53258830147E+02  0.60784527174E+02  0.00000000000E+00 0.  1.
         22    1    4    4    0    0 -0.72231180894E+01  0.22064470473E+01 -0.16712652511E+02  0.18339972668E+02  0.00000000000E+00 0.  1.
<mgrwt>
<rscale>  0 0.88390039E+02</rscale>
<asrwt>0</asrwt>
<pdfrwt beam="2">  1        1 0.14062830E-01 0.88390039E+02</pdfrwt>
<pdfrwt beam="1">  1       -1 0.32873597E-02 0.88390039E+02</pdfrwt>
<totfact> 0.11200588E+05</totfact>
</mgrwt>
</event>
<event>
 7    1  0.3565607E-009  0.8909310E+02  0.7818608E-02  0.1305063E+00
         -1   -1    0    0    0  501 -0.00000000000E+00  0.00000000000E+00  0.96864303816E+01  0.96864316928E+01  0.50400000000E-02 0.  1.
          1   -1    0    0  501    0  0.00000000000E+00 -0.00000000000E+00 -0.20486336924E+03  0.20486336930E+03  0.50400000000E-02 0. -1.
         23    2    1    2    0    0  0.00000000000E+00  0.00000000000E+00 -0.19517693886E+03  0.21454980099E+03  0.89093095382E+02 0.  0.
    9000005    2    3    3    0    0 -0.14316297345E+02 -0.27829773252E+02 -0.26839809383E+02  0.43328184927E+02  0.13323047415E+02 0.  0.
         22    1    3    3    0    0  0.14316297345E+02  0.27829773252E+02 -0.16833712947E+03  0.17122161606E+03  0.00000000000E+00 0. -1.
         22    1    4    4    0    0 -0.92626784480E+01 -0.23229210519E+02 -0.13693119113E+02  0.28511312569E+02  0.00000000000E+00 0. -1.
         22    1    4    4    0    0 -0.50536188970E+01 -0.46005627332E+01 -0.13146690270E+02  0.14816872358E+02  0.00000000000E+00 0. -1.
<mgrwt>
<rscale>  0 0.89093095E+02</rscale>
<asrwt>0</asrwt>
<pdfrwt beam="2">  1        1 0.31517438E-01 0.89093095E+02</pdfrwt>
<pdfrwt beam="1">  1       -1 0.14902203E-02 0.89093095E+02</pdfrwt>
<totfact> 0.12655045E+05</totfact>
</mgrwt>
</event>
<event>
 7    1  0.3565607E-009  0.8949645E+02  0.7818608E-02  0.1304076E+00
          1   -1    0    0  501    0  0.00000000000E+00  0.00000000000E+00  0.92064788885E+02  0.92064789023E+02  0.50400000000E-02 0. -1.
         -1   -1    0    0    0  501 -0.00000000000E+00 -0.00000000000E+00 -0.21749939726E+02  0.21749940310E+02  0.50400000000E-02 0.  1.
         23    2    1    2    0    0  0.00000000000E+00  0.00000000000E+00  0.70314849159E+02  0.11381472933E+03  0.89496450214E+02 0.  0.
    9000005    2    3    3    0    0  0.18702769249E+02 -0.33290924360E+02  0.67491695176E+01  0.39661679156E+02  0.83317634362E+01 0.  0.
         22    1    3    3    0    0 -0.18702769249E+02  0.33290924360E+02  0.63565679642E+02  0.74153050177E+02  0.00000000000E+00 0. -1.
         22    1    4    4    0    0  0.72598069820E+01 -0.75753131977E+01  0.45273530364E+01  0.11427470979E+02  0.00000000000E+00 0.  1.
         22    1    4    4    0    0  0.11442962267E+02 -0.25715611162E+02  0.22218164812E+01  0.28234208177E+02  0.00000000000E+00 0.  1.
<mgrwt>
<rscale>  0 0.89496450E+02</rscale>
<asrwt>0</asrwt>
<pdfrwt beam="1">  1        1 0.14163813E-01 0.89496450E+02</pdfrwt>
<pdfrwt beam="2">  1       -1 0.33461447E-02 0.89496450E+02</pdfrwt>
<totfact> 0.10840187E+05</totfact>
</mgrwt>
</event>
<event>
 7    1  0.3565607E-009  0.9009915E+02  0.7818608E-02  0.1302612E+00
         -1   -1    0    0    0  501 -0.00000000000E+00  0.00000000000E+00  0.28410129215E+03  0.28410129219E+03  0.50400000000E-02 0.  1.
          1   -1    0    0  501    0  0.00000000000E+00 -0.00000000000E+00 -0.71434526756E+01  0.71434544535E+01  0.50400000000E-02 0. -1.
         23    2    1    2    0    0  0.00000000000E+00  0.00000000000E+00  0.27695783947E+03  0.29124474664E+03  0.90099154290E+02 0.  0.
    9000005    2    3    3    0    0 -0.33060168165E+02  0.26538179653E+02  0.91745142495E+02  0.10124213398E+03  0.59622833735E+01 0.  0.
         22    1    3    3    0    0  0.33060168165E+02 -0.26538179653E+02  0.18521269698E+03  0.19000261266E+03  0.00000000000E+00 0.  1.
         22    1    4    4    0    0 -0.22702715212E+02  0.21455712911E+02  0.65100816170E+02  0.72207182195E+02  0.00000000000E+00 0. -1.
         22    1    4    4    0    0 -0.10357452953E+02  0.50824667413E+01  0.26644326325E+02  0.29034951785E+02  0.00000000000E+00 0. -1.
<mgrwt>
<rscale>  0 0.90099154E+02</rscale>
<asrwt>0</asrwt>
<pdfrwt beam="2">  1        1 0.10989929E-02 0.90099154E+02</pdfrwt>
<pdfrwt beam="1">  1       -1 0.43707889E-01 0.90099154E+02</pdfrwt>
<totfact> 0.63821487E+04</totfact>
</mgrwt>
</event>
<event>
 7    1  0.3565607E-009  0.9115088E+02  0.7818608E-02  0.1300088E+00
         -1   -1    0    0    0  501 -0.00000000000E+00  0.00000000000E+00  0.18353832557E+01  0.18353901757E+01  0.50400000000E-02 0.  1.
          1   -1    0    0  501    0  0.00000000000E+00 -0.00000000000E+00 -0.11317075144E+04  0.11317075144E+04  0.50400000000E-02 0. -1.
         23    2    1    2    0    0  0.00000000000E+00  0.00000000000E+00 -0.11298721311E+04  0.11335429045E+04  0.91150884815E+02 0.  0.
    9000005    2    3    3    0    0 -0.32790570499E+02 -0.11414700903E+02 -0.92615033550E+03  0.92688355462E+03  0.12375902279E+02 0.  0.
         22    1    3    3    0    0  0.32790570499E+02  0.11414700903E+02 -0.20372179560E+03  0.20665934993E+03  0.00000000000E+00 0.  1.
         22    1    4    4    0    0 -0.30365621952E+02 -0.66565140717E+01 -0.83341689812E+03  0.83399646657E+03  0.00000000000E+00 0. -1.
         22    1    4    4    0    0 -0.24249485466E+01 -0.47581868317E+01 -0.92733437381E+02  0.92887088047E+02  0.00000000000E+00 0. -1.
<mgrwt>
<rscale>  0 0.91150885E+02</rscale>
<asrwt>0</asrwt>
<pdfrwt beam="2">  1        1 0.17410829E+00 0.91150885E+02</pdfrwt>
<pdfrwt beam="1">  1       -1 0.28236809E-03 0.91150885E+02</pdfrwt>
<totfact> 0.13067596E+05</totfact>
</mgrwt>
</event>
<event>
 7    1  0.3565607E-009  0.9200340E+02  0.7818608E-02  0.1298071E+00
         -1   -1    0    0    0  501 -0.00000000000E+00  0.00000000000E+00  0.39862910481E+02  0.39862910799E+02  0.50400000000E-02 0.  1.
          1   -1    0    0  501    0  0.00000000000E+00 -0.00000000000E+00 -0.53085841670E+02  0.53085841909E+02  0.50400000000E-02 0. -1.
         23    2    1    2    0    0 -0.71054273576E-14  0.35527136788E-14 -0.13222931189E+02  0.92948752709E+02  0.92003395159E+02 0.  0.
    9000005    2    3    3    0    0 -0.37572473657E+02  0.18692279055E+02  0.11324991882E+02  0.44330930872E+02  0.87111375790E+01 0.  0.
         22    1    3    3    0    0  0.37572473657E+02 -0.18692279055E+02 -0.24547923072E+02  0.48617821836E+02  0.00000000000E+00 0. -1.
         22    1    4    4    0    0 -0.56658743315E+01  0.46314754995E+01 -0.92063094607E+00  0.73756530952E+01  0.00000000000E+00 0.  1.
         22    1    4    4    0    0 -0.31906599325E+02  0.14060803555E+02  0.12245622828E+02  0.36955277777E+02  0.00000000000E+00 0.  1.
<mgrwt>
<rscale>  0 0.92003395E+02</rscale>
<asrwt>0</asrwt>
<pdfrwt beam="2">  1        1 0.81670526E-02 0.92003395E+02</pdfrwt>
<pdfrwt beam="1">  1       -1 0.61327555E-02 0.92003395E+02</pdfrwt>
<totfact> 0.92256134E+04</totfact>
</mgrwt>
</event>
<event>
 6    1  0.3565607E-009  0.1387190E+03  0.7818608E-02  0.1215063E+00
          1   -1    0    0  501    0  0.00000000000E+00  0.00000000000E+00  0.98462176070E+01  0.98462188969E+01  0.50400000000E-02 0. -1.
         -1   -1    0    0    0  501 -0.00000000000E+00 -0.00000000000E+00 -0.48858761980E+03  0.48858761982E+03  0.50400000000E-02 0.  1.
    9000005    2    1    2    0    0 -0.16335720879E+02  0.57879089161E+02 -0.36144775340E+03  0.36662092287E+03  0.12230204776E+02 0.  0.
         22    1    1    2    0    0  0.16335720879E+02 -0.57879089161E+02 -0.11729364880E+03  0.13181291586E+03  0.00000000000E+00 0. -1.
         22    1    3    3    0    0 -0.10588346283E+02  0.39434884369E+02 -0.27688367586E+03  0.27987817554E+03  0.00000000000E+00 0. -1.
         22    1    3    3    0    0 -0.57473745966E+01  0.18444204792E+02 -0.84564077534E+02  0.86742747330E+02  0.00000000000E+00 0. -1.
<mgrwt>
<rscale>  0 0.13871900E+03</rscale>
<asrwt>0</asrwt>
<pdfrwt beam="1">  1        1 0.15148032E-02 0.13871900E+03</pdfrwt>
<pdfrwt beam="2">  1       -1 0.75167307E-01 0.13871900E+03</pdfrwt>
<totfact> 0.15614159E+04</totfact>
</mgrwt>
</event>
<event>
 7    1  0.3565607E-009  0.9071481E+02  0.7818608E-02  0.1301130E+00
         -1   -1    0    0    0  501 -0.00000000000E+00  0.00000000000E+00  0.12862670304E+03  0.12862670314E+03  0.50400000000E-02 0.  1.
          1   -1    0    0  501    0  0.00000000000E+00 -0.00000000000E+00 -0.15994302123E+02  0.15994302917E+02  0.50400000000E-02 0. -1.
         23    2    1    2    0    0 -0.71054273576E-14  0.00000000000E+00  0.11263240091E+03  0.14462100605E+03  0.90714814975E+02 0.  0.
    9000005    2    3    3    0    0 -0.38609395857E+02  0.10594174021E+02  0.88648676957E+02  0.97950448026E+02  0.11523036524E+02 0.  0.
         22    1    3    3    0    0  0.38609395857E+02 -0.10594174021E+02  0.23983723957E+02  0.46670558026E+02  0.00000000000E+00 0. -1.
         22    1    4    4    0    0 -0.11168248349E+01  0.14572525810E+01  0.11957087319E+02  0.12097223647E+02  0.00000000000E+00 0.  1.
         22    1    4    4    0    0 -0.37492571022E+02  0.91369214400E+01  0.76691589637E+02  0.85853224380E+02  0.00000000000E+00 0.  1.
<mgrwt>
<rscale>  0 0.90714815E+02</rscale>
<asrwt>0</asrwt>
<pdfrwt beam="2">  1        1 0.24606618E-02 0.90714815E+02</pdfrwt>
<pdfrwt beam="1">  1       -1 0.19788724E-01 0.90714815E+02</pdfrwt>
<totfact> 0.78424432E+04</totfact>
</mgrwt>
</event>
<event>
 7    1  0.3565607E-009  0.9252370E+02  0.7818608E-02  0.1296853E+00
          1   -1    0    0  501    0  0.00000000000E+00  0.00000000000E+00  0.10375734770E+03  0.10375734782E+03  0.50400000000E-02 0. -1.
         -1   -1    0    0    0  501 -0.00000000000E+00 -0.00000000000E+00 -0.20626574159E+02  0.20626574775E+02  0.50400000000E-02 0.  1.
         23    2    1    2    0    0  0.00000000000E+00  0.00000000000E+00  0.83130773541E+02  0.12438392260E+03  0.92523697998E+02 0.  0.
    9000005    2    3    3    0    0  0.44784684401E+01 -0.37447652067E+02  0.57961696985E+01  0.38343093474E+02  0.37701338232E+01 0.  0.
         22    1    3    3    0    0 -0.44784684401E+01  0.37447652067E+02  0.77334603843E+02  0.86040829124E+02  0.00000000000E+00 0. -1.
         22    1    4    4    0    0  0.49758597640E+01 -0.30795066248E+02  0.41269996607E+01  0.31466290086E+02  0.00000000000E+00 0. -1.
         22    1    4    4    0    0 -0.49739132391E+00 -0.66525858191E+01  0.16691700379E+01  0.68768033871E+01  0.00000000000E+00 0. -1.
<mgrwt>
<rscale>  0 0.92523698E+02</rscale>
<asrwt>0</asrwt>
<pdfrwt beam="1">  1        1 0.15962669E-01 0.92523698E+02</pdfrwt>
<pdfrwt beam="2">  1       -1 0.31733191E-02 0.92523698E+02</pdfrwt>
<totfact> 0.10097552E+05</totfact>
</mgrwt>
</event>
<event>
 7    1  0.3565607E-009  0.9284539E+02  0.7818608E-02  0.1296104E+00
         -1   -1    0    0    0  501 -0.00000000000E+00  0.00000000000E+00  0.23713117870E+02  0.23713118406E+02  0.50400000000E-02 0. -1.
          1   -1    0    0  501    0  0.00000000000E+00 -0.00000000000E+00 -0.90880769036E+02  0.90880769175E+02  0.50400000000E-02 0.  1.
         23    2    1    2    0    0  0.00000000000E+00 -0.88817841970E-15 -0.67167651165E+02  0.11459388758E+03  0.92845386034E+02 0.  0.
    9000005    2    3    3    0    0  0.28333320536E+02 -0.71168144928E+01 -0.78077219681E+02  0.83409840597E+02  0.27790599466E+01 0.  0.
         22    1    3    3    0    0 -0.28333320536E+02  0.71168144928E+01  0.10909568515E+02  0.31184046984E+02  0.00000000000E+00 0. -1.
         22    1    4    4    0    0  0.52452624582E+01 -0.20172754578E+01 -0.17569985235E+02  0.18446857719E+02  0.00000000000E+00 0.  1.
         22    1    4    4    0    0  0.23088058078E+02 -0.50995390350E+01 -0.60507234445E+02  0.64962982878E+02  0.00000000000E+00 0.  1.
<mgrwt>
<rscale>  0 0.92845386E+02</rscale>
<asrwt>0</asrwt>
<pdfrwt beam="2">  1        1 0.13981657E-01 0.92845386E+02</pdfrwt>
<pdfrwt beam="1">  1       -1 0.36481721E-02 0.92845386E+02</pdfrwt>
<totfact> 0.97839271E+04</totfact>
</mgrwt>
</event>
<event>
 7    1  0.3565607E-009  0.8920651E+02  0.7818608E-02  0.1304785E+00
          1   -1    0    0  501    0  0.00000000000E+00  0.00000000000E+00  0.56975878448E+01  0.56975900740E+01  0.50400000000E-02 0. -1.
         -1   -1    0    0    0  501 -0.00000000000E+00 -0.00000000000E+00 -0.34917405938E+03  0.34917405942E+03  0.50400000000E-02 0.  1.
         23    2    1    2    0    0  0.17763568394E-14 -0.35527136788E-14 -0.34347647154E+03  0.35487164949E+03  0.89206508248E+02 0.  0.
    9000005    2    3    3    0    0 -0.10934468079E+02  0.31664898627E+02 -0.28698002706E+03  0.28919001861E+03  0.12292377025E+02 0.  0.
         22    1    3    3    0    0  0.10934468079E+02 -0.31664898627E+02 -0.56496444473E+02  0.65681630882E+02  0.00000000000E+00 0. -1.
         22    1    4    4    0    0 -0.94979748104E+01  0.29410282947E+02 -0.22040271532E+03  0.22255905551E+03  0.00000000000E+00 0. -1.
         22    1    4    4    0    0 -0.14364932682E+01  0.22546156801E+01 -0.66577311747E+02  0.66630963104E+02  0.00000000000E+00 0. -1.
<mgrwt>
<rscale>  0 0.89206508E+02</rscale>
<asrwt>0</asrwt>
<pdfrwt beam="1">  1        1 0.87655242E-03 0.89206508E+02</pdfrwt>
<pdfrwt beam="2">  1       -1 0.53719070E-01 0.89206508E+02</pdfrwt>
<totfact> 0.60188610E+04</totfact>
</mgrwt>
</event>
<event>
 7    1  0.3565607E-009  0.9388771E+02  0.7818608E-02  0.1293701E+00
         -1   -1    0    0    0  501 -0.00000000000E+00  0.00000000000E+00  0.13442523645E+03  0.13442523654E+03  0.50400000000E-02 0.  1.
          1   -1    0    0  501    0  0.00000000000E+00 -0.00000000000E+00 -0.16393688604E+02  0.16393689378E+02  0.50400000000E-02 0. -1.
         23    2    1    2    0    0  0.00000000000E+00 -0.35527136788E-14  0.11803154784E+03  0.15081892592E+03  0.93887710215E+02 0.  0.
    9000005    2    3    3    0    0  0.40932094192E+02 -0.21800620051E+02  0.67695174687E+02  0.82375855912E+02  0.72416567070E+01 0.  0.
         22    1    3    3    0    0 -0.40932094192E+02  0.21800620051E+02  0.50336373157E+02  0.68443070008E+02  0.00000000000E+00 0. -1.
         22    1    4    4    0    0  0.80645154093E+01 -0.32925226911E+01  0.17898113694E+02  0.19905265340E+02  0.00000000000E+00 0.  1.
         22    1    4    4    0    0  0.32867578782E+02 -0.18508097360E+02  0.49797060993E+02  0.62470590572E+02  0.00000000000E+00 0.  1.
<mgrwt>
<rscale>  0 0.93887710E+02</rscale>
<asrwt>0</asrwt>
<pdfrwt beam="2">  1        1 0.25221061E-02 0.93887710E+02</pdfrwt>
<pdfrwt beam="1">  1       -1 0.20680805E-01 0.93887710E+02</pdfrwt>
<totfact> 0.71054704E+04</totfact>
</mgrwt>
</event>
<event>
 7    1  0.3565607E-009  0.1120176E+03  0.7818608E-02  0.1256879E+00
         -1   -1    0    0    0  501 -0.00000000000E+00  0.00000000000E+00  0.19070442858E+03  0.19070442864E+03  0.50400000000E-02 0.  1.
          1   -1    0    0  501    0  0.00000000000E+00 -0.00000000000E+00 -0.16449463218E+02  0.16449463991E+02  0.50400000000E-02 0. -1.
         23    2    1    2    0    0  0.00000000000E+00  0.00000000000E+00  0.17425496536E+03  0.20715389263E+03  0.11201759809E+03 0.  0.
    9000005    2    3    3    0    0 -0.35777693499E+02  0.40725532642E+02  0.10744909141E+03  0.12112112472E+03  0.13653103943E+02 0.  0.
         22    1    3    3    0    0  0.35777693499E+02 -0.40725532642E+02  0.66805873952E+02  0.86032767918E+02  0.00000000000E+00 0. -1.
         22    1    4    4    0    0 -0.12245739317E+02  0.52353725761E+01  0.25286146488E+02  0.28578951374E+02  0.00000000000E+00 0. -1.
         22    1    4    4    0    0 -0.23531954182E+02  0.35490160066E+02  0.82162944919E+02  0.92542173342E+02  0.00000000000E+00 0. -1.
<mgrwt>
<rscale>  0 0.11201760E+03</rscale>
<asrwt>0</asrwt>
<pdfrwt beam="2">  1        1 0.25306867E-02 0.11201760E+03</pdfrwt>
<pdfrwt beam="1">  1       -1 0.29339143E-01 0.11201760E+03</pdfrwt>
<totfact> 0.41040185E+04</totfact>
</mgrwt>
</event>
<event>
 7    1  0.3565607E-009  0.9225124E+02  0.7818608E-02  0.1297490E+00
         -1   -1    0    0    0  501 -0.00000000000E+00  0.00000000000E+00  0.79192014868E+01  0.79192030906E+01  0.50400000000E-02 0.  1.
          1   -1    0    0  501    0  0.00000000000E+00 -0.00000000000E+00 -0.26865997841E+03  0.26865997846E+03  0.50400000000E-02 0. -1.
         23    2    1    2    0    0  0.00000000000E+00  0.00000000000E+00 -0.26074077692E+03  0.27657918155E+03  0.92251238014E+02 0.  0.
    9000005    2    3    3    0    0 -0.44617849937E+02 -0.36005110650E+01 -0.14835743153E+03  0.15560921612E+03  0.14162783606E+02 0.  0.
         22    1    3    3    0    0  0.44617849937E+02  0.36005110650E+01 -0.11238334540E+03  0.12096996543E+03  0.00000000000E+00 0.  1.
         22    1    4    4    0    0 -0.29884720684E+02  0.12099201448E+01 -0.11502214085E+03  0.11884718475E+03  0.00000000000E+00 0. -1.
         22    1    4    4    0    0 -0.14733129253E+02 -0.48104312098E+01 -0.33335290672E+02  0.36762031367E+02  0.00000000000E+00 0. -1.
<mgrwt>
<rscale>  0 0.92251238E+02</rscale>
<asrwt>0</asrwt>
<pdfrwt beam="2">  1        1 0.41332298E-01 0.92251238E+02</pdfrwt>
<pdfrwt beam="1">  1       -1 0.12183390E-02 0.92251238E+02</pdfrwt>
<totfact> 0.12155539E+05</totfact>
</mgrwt>
</event>
<event>
 7    1  0.3565607E-009  0.8916927E+02  0.7818608E-02  0.1304876E+00
          1   -1    0    0  501    0  0.00000000000E+00  0.00000000000E+00  0.45121652739E+03  0.45121652742E+03  0.50400000000E-02 0. -1.
         -1   -1    0    0    0  501 -0.00000000000E+00 -0.00000000000E+00 -0.44053998763E+01  0.44054027593E+01  0.50400000000E-02 0.  1.
         23    2    1    2    0    0  0.00000000000E+00 -0.17763568394E-14  0.44681112752E+03  0.45562193018E+03  0.89169274914E+02 0.  0.
    9000005    2    3    3    0    0 -0.41505356788E+02  0.11501885365E+02  0.27743981926E+03  0.28086029804E+03  0.73936251623E+01 0.  0.
         22    1    3    3    0    0  0.41505356788E+02 -0.11501885365E+02  0.16937130825E+03  0.17476163214E+03  0.00000000000E+00 0.  1.
         22    1    4    4    0    0 -0.12811832195E+02  0.55604998996E+01  0.72096710409E+02  0.73437033268E+02  0.00000000000E+00 0. -1.
         22    1    4    4    0    0 -0.28693524593E+02  0.59413854651E+01  0.20534310885E+03  0.20742326477E+03  0.00000000000E+00 0. -1.
<mgrwt>
<rscale>  0 0.89169275E+02</rscale>
<asrwt>0</asrwt>
<pdfrwt beam="1">  1        1 0.69417923E-01 0.89169275E+02</pdfrwt>
<pdfrwt beam="2">  1       -1 0.67775409E-03 0.89169275E+02</pdfrwt>
<totfact> 0.14575636E+05</totfact>
</mgrwt>
</event>
<event>
 7    1  0.3565607E-009  0.9123042E+02  0.7818608E-02  0.1299899E+00
          1   -1    0    0  501    0  0.00000000000E+00  0.00000000000E+00  0.10001642299E+02  0.10001643569E+02  0.50400000000E-02 0. -1.
         -1   -1    0    0    0  501 -0.00000000000E+00 -0.00000000000E+00 -0.20804056450E+03  0.20804056456E+03  0.50400000000E-02 0.  1.
         23    2    1    2    0    0  0.00000000000E+00  0.00000000000E+00 -0.19803892220E+03  0.21804220813E+03  0.91230421568E+02 0.  0.
    9000005    2    3    3    0    0  0.20310520305E+02 -0.27069921038E+02 -0.29884758817E+02  0.46516348495E+02  0.11197053527E+02 0.  0.
         22    1    3    3    0    0 -0.20310520305E+02  0.27069921038E+02 -0.16815416338E+03  0.17152585963E+03  0.00000000000E+00 0.  1.
         22    1    4    4    0    0  0.10593757842E+02 -0.22308100773E+02 -0.22564779234E+02  0.33452179708E+02  0.00000000000E+00 0. -1.
         22    1    4    4    0    0  0.97167624639E+01 -0.47618202651E+01 -0.73199795830E+01  0.13064168788E+02  0.00000000000E+00 0. -1.
<mgrwt>
<rscale>  0 0.91230422E+02</rscale>
<asrwt>0</asrwt>
<pdfrwt beam="1">  1        1 0.15387145E-02 0.91230422E+02</pdfrwt>
<pdfrwt beam="2">  1       -1 0.32006238E-01 0.91230422E+02</pdfrwt>
<totfact> 0.68529813E+04</totfact>
</mgrwt>
</event>
<event>
 7    1  0.3565607E-009  0.9060732E+02  0.7818608E-02  0.1301388E+00
          1   -1    0    0  501    0  0.00000000000E+00  0.00000000000E+00  0.14497243199E+03  0.14497243208E+03  0.50400000000E-02 0. -1.
         -1   -1    0    0    0  501 -0.00000000000E+00 -0.00000000000E+00 -0.14157324418E+02  0.14157325315E+02  0.50400000000E-02 0.  1.
         23    2    1    2    0    0  0.00000000000E+00  0.00000000000E+00  0.13081510757E+03  0.15912975739E+03  0.90607324863E+02 0.  0.
    9000005    2    3    3    0    0  0.20707143212E+02  0.61320810316E+01  0.13494155004E+03  0.13714304038E+03  0.11515354898E+02 0.  0.
         22    1    3    3    0    0 -0.20707143212E+02 -0.61320810316E+01 -0.41264424675E+01  0.21986717018E+02  0.00000000000E+00 0.  1.
         22    1    4    4    0    0  0.12277066386E+02  0.76921843792E+00  0.45095351913E+02  0.46743008249E+02  0.00000000000E+00 0. -1.
         22    1    4    4    0    0  0.84300768257E+01  0.53628625937E+01  0.89846198128E+02  0.90400032126E+02  0.00000000000E+00 0. -1.
<mgrwt>
<rscale>  0 0.90607325E+02</rscale>
<asrwt>0</asrwt>
<pdfrwt beam="1">  1        1 0.22303452E-01 0.90607325E+02</pdfrwt>
<pdfrwt beam="2">  1       -1 0.21780500E-02 0.90607325E+02</pdfrwt>
<totfact> 0.11333429E+05</totfact>
</mgrwt>
</event>
<event>
 7    1  0.4762099E-009  0.9647060E+02  0.7818608E-02  0.1287898E+00
         -1   -1    0    0    0  501 -0.00000000000E+00  0.00000000000E+00  0.30930965636E+02  0.30930966047E+02  0.50400000000E-02 0.  1.
          1   -1    0    0  501    0  0.00000000000E+00 -0.00000000000E+00 -0.75220538956E+02  0.75220539125E+02  0.50400000000E-02 0. -1.
         23    2    1    2    0    0  0.35527136788E-14  0.00000000000E+00 -0.44289573320E+02  0.10615150517E+03  0.96470595237E+02 0.  0.
    9000005    2    3    3    0    0  0.28999284402E+02  0.48762488531E+01  0.17509913998E+02  0.37712386741E+02  0.15839530511E+02 0.  0.
         22    1    3    3    0    0 -0.28999284402E+02 -0.48762488531E+01 -0.61799487318E+02  0.68439118430E+02  0.00000000000E+00 0. -1.
         22    1    4    4    0    0 -0.12356966193E+01  0.27677192565E+01  0.22786004561E+01  0.37919963155E+01  0.00000000000E+00 0. -1.
         22    1    4    4    0    0  0.30234981022E+02  0.21085295966E+01  0.15231313542E+02  0.33920390426E+02  0.00000000000E+00 0. -1.
<mgrwt>
<rscale>  0 0.96470595E+02</rscale>
<asrwt>0</asrwt>
<pdfrwt beam="2">  1        1 0.11572391E-01 0.96470595E+02</pdfrwt>
<pdfrwt beam="1">  1       -1 0.47586102E-02 0.96470595E+02</pdfrwt>
<totfact> 0.85363254E+04</totfact>
</mgrwt>
</event>
<event>
 7    1  0.3565607E-009  0.9265055E+02  0.7818608E-02  0.1296557E+00
         -1   -1    0    0    0  501 -0.00000000000E+00  0.00000000000E+00  0.14204972095E+03  0.14204972104E+03  0.50400000000E-02 0.  1.
          1   -1    0    0  501    0  0.00000000000E+00 -0.00000000000E+00 -0.15107604507E+02  0.15107605348E+02  0.50400000000E-02 0. -1.
         23    2    1    2    0    0  0.00000000000E+00  0.00000000000E+00  0.12694211644E+03  0.15715732638E+03  0.92650549432E+02 0.  0.
    9000005    2    3    3    0    0  0.52918025757E+01  0.30278572016E+02  0.12205931604E+03  0.12603439533E+03  0.64340558809E+01 0.  0.
         22    1    3    3    0    0 -0.52918025757E+01 -0.30278572016E+02  0.48828003970E+01  0.31122931056E+02  0.00000000000E+00 0. -1.
         22    1    4    4    0    0 -0.13917246676E+01  0.51503883074E+01  0.24043648948E+02  0.24628448023E+02  0.00000000000E+00 0. -1.
         22    1    4    4    0    0  0.66835272433E+01  0.25128183708E+02  0.98015667094E+02  0.10140594730E+03  0.00000000000E+00 0. -1.
<mgrwt>
<rscale>  0 0.92650549E+02</rscale>
<asrwt>0</asrwt>
<pdfrwt beam="2">  1        1 0.23242469E-02 0.92650549E+02</pdfrwt>
<pdfrwt beam="1">  1       -1 0.21853803E-01 0.92650549E+02</pdfrwt>
<totfact> 0.72643536E+04</totfact>
</mgrwt>
</event>
<event>
 7    1  0.3565607E-009  0.9140833E+02  0.7818608E-02  0.1299477E+00
         -1   -1    0    0    0  501 -0.00000000000E+00  0.00000000000E+00  0.10649896498E+02  0.10649897690E+02  0.50400000000E-02 0.  1.
          1   -1    0    0  501    0  0.00000000000E+00 -0.00000000000E+00 -0.19614000394E+03  0.19614000400E+03  0.50400000000E-02 0. -1.
         23    2    1    2    0    0  0.00000000000E+00  0.00000000000E+00 -0.18549010744E+03  0.20678990169E+03  0.91408333777E+02 0.  0.
    9000005    2    3    3    0    0  0.43733255954E+02 -0.11752269742E+02 -0.91801340249E+02  0.10273079052E+03  0.86842229837E+01 0.  0.
         22    1    3    3    0    0 -0.43733255954E+02  0.11752269742E+02 -0.93688767191E+02  0.10405911117E+03  0.00000000000E+00 0. -1.
         22    1    4    4    0    0  0.22503849655E+02 -0.57313568009E+01 -0.37383426597E+02  0.44009002309E+02  0.00000000000E+00 0. -1.
         22    1    4    4    0    0  0.21229406299E+02 -0.60209129414E+01 -0.54417913651E+02  0.58721788210E+02  0.00000000000E+00 0. -1.
<mgrwt>
<rscale>  0 0.91408334E+02</rscale>
<asrwt>0</asrwt>
<pdfrwt beam="2">  1        1 0.30175383E-01 0.91408334E+02</pdfrwt>
<pdfrwt beam="1">  1       -1 0.16384459E-02 0.91408334E+02</pdfrwt>
<totfact> 0.11715929E+05</totfact>
</mgrwt>
</event>
<event>
 7    1  0.3565607E-009  0.9062937E+02  0.7818608E-02  0.1301335E+00
          1   -1    0    0  501    0  0.00000000000E+00  0.00000000000E+00  0.15949838167E+03  0.15949838175E+03  0.50400000000E-02 0. -1.
         -1   -1    0    0    0  501 -0.00000000000E+00 -0.00000000000E+00 -0.12874240911E+02  0.12874241898E+02  0.50400000000E-02 0.  1.
         23    2    1    2    0    0  0.35527136788E-14  0.88817841970E-15  0.14662414076E+03  0.17237262364E+03  0.90629370127E+02 0.  0.
    9000005    2    3    3    0    0 -0.19682452202E+02 -0.74065802392E+01  0.14934675591E+03  0.15116722365E+03  0.10238146854E+02 0.  0.
         22    1    3    3    0    0  0.19682452202E+02  0.74065802392E+01 -0.27226151529E+01  0.21205399991E+02  0.00000000000E+00 0.  1.
         22    1    4    4    0    0 -0.87260993196E+01 -0.37073787468E+01  0.35836848614E+02  0.37069788037E+02  0.00000000000E+00 0.  1.
         22    1    4    4    0    0 -0.10956352882E+02 -0.36992014924E+01  0.11350990729E+03  0.11409743562E+03  0.00000000000E+00 0.  1.
<mgrwt>
<rscale>  0 0.90629370E+02</rscale>
<asrwt>0</asrwt>
<pdfrwt beam="1">  1        1 0.24538214E-01 0.90629370E+02</pdfrwt>
<pdfrwt beam="2">  1       -1 0.19806524E-02 0.90629370E+02</pdfrwt>
<totfact> 0.11526741E+05</totfact>
</mgrwt>
</event>
<event>
 7    1  0.3565607E-009  0.8753884E+02  0.7818608E-02  0.1308924E+00
         -1   -1    0    0    0  501 -0.00000000000E+00  0.00000000000E+00  0.25350156934E+02  0.25350157435E+02  0.50400000000E-02 0.  1.
          1   -1    0    0  501    0  0.00000000000E+00 -0.00000000000E+00 -0.75571994989E+02  0.75571995157E+02  0.50400000000E-02 0. -1.
         23    2    1    2    0    0  0.00000000000E+00  0.00000000000E+00 -0.50221838055E+02  0.10092215259E+03  0.87538836331E+02 0.  0.
    9000005    2    3    3    0    0  0.31667845993E+02  0.17230191190E+01 -0.58467314803E+02  0.68153125272E+02  0.14852619952E+02 0.  0.
         22    1    3    3    0    0 -0.31667845993E+02 -0.17230191190E+01  0.82454767478E+01  0.32769027320E+02  0.00000000000E+00 0.  1.
         22    1    4    4    0    0 -0.14151135780E+01  0.10777901895E+01 -0.17887520753E+01  0.25226597310E+01  0.00000000000E+00 0. -1.
         22    1    4    4    0    0  0.33082959571E+02  0.64522892951E+00 -0.56678562727E+02  0.65630465541E+02  0.00000000000E+00 0. -1.
<mgrwt>
<rscale>  0 0.87538836E+02</rscale>
<asrwt>0</asrwt>
<pdfrwt beam="2">  1        1 0.11626461E-01 0.87538836E+02</pdfrwt>
<pdfrwt beam="1">  1       -1 0.39000242E-02 0.87538836E+02</pdfrwt>
<totfact> 0.11163259E+05</totfact>
</mgrwt>
</event>
<event>
 7    1  0.3565607E-009  0.9115062E+02  0.7818608E-02  0.1300089E+00
          1   -1    0    0  501    0  0.00000000000E+00  0.00000000000E+00  0.82786605811E+02  0.82786605964E+02  0.50400000000E-02 0. -1.
         -1   -1    0    0    0  501 -0.00000000000E+00 -0.00000000000E+00 -0.25089914339E+02  0.25089914845E+02  0.50400000000E-02 0.  1.
         23    2    1    2    0    0  0.00000000000E+00  0.00000000000E+00  0.57696691472E+02  0.10787652081E+03  0.91150620048E+02 0.  0.
    9000005    2    3    3    0    0  0.44377002148E+02 -0.28630728457E+01  0.24255225836E+02  0.52236183557E+02  0.12758816028E+02 0.  0.
         22    1    3    3    0    0 -0.44377002148E+02  0.28630728457E+01  0.33441465636E+02  0.55640337253E+02  0.00000000000E+00 0. -1.
         22    1    4    4    0    0  0.39454251395E+01 -0.37196345620E+01  0.78659708701E+00  0.54791236328E+01  0.00000000000E+00 0.  1.
         22    1    4    4    0    0  0.40431577008E+02  0.85656171631E+00  0.23468628749E+02  0.46757059924E+02  0.00000000000E+00 0.  1.
<mgrwt>
<rscale>  0 0.91150620E+02</rscale>
<asrwt>0</asrwt>
<pdfrwt beam="1">  1        1 0.12736401E-01 0.91150620E+02</pdfrwt>
<pdfrwt beam="2">  1       -1 0.38599869E-02 0.91150620E+02</pdfrwt>
<totfact> 0.10137201E+05</totfact>
</mgrwt>
</event>
<event>
 7    1  0.3565607E-009  0.9176157E+02  0.7818608E-02  0.1298641E+00
         -1   -1    0    0    0  501 -0.00000000000E+00  0.00000000000E+00  0.13023011934E+02  0.13023012909E+02  0.50400000000E-02 0.  1.
          1   -1    0    0  501    0  0.00000000000E+00 -0.00000000000E+00 -0.16164049685E+03  0.16164049693E+03  0.50400000000E-02 0. -1.
         23    2    1    2    0    0 -0.17763568394E-14  0.00000000000E+00 -0.14861748491E+03  0.17466350983E+03  0.91761565187E+02 0.  0.
    9000005    2    3    3    0    0  0.12914216470E+02 -0.88418055793E+01 -0.15583466418E+03  0.15742859789E+03  0.15948867064E+02 0.  0.
         22    1    3    3    0    0 -0.12914216470E+02  0.88418055793E+01  0.72171792709E+01  0.17234911940E+02  0.00000000000E+00 0.  1.
         22    1    4    4    0    0  0.16697350229E+02 -0.72094759029E+01 -0.12332361182E+03  0.12465749588E+03  0.00000000000E+00 0. -1.
         22    1    4    4    0    0 -0.37831337589E+01 -0.16323296765E+01 -0.32511052369E+02  0.32771102016E+02  0.00000000000E+00 0. -1.
<mgrwt>
<rscale>  0 0.91761565E+02</rscale>
<asrwt>0</asrwt>
<pdfrwt beam="2">  1        1 0.24867767E-01 0.91761565E+02</pdfrwt>
<pdfrwt beam="1">  1       -1 0.20035405E-02 0.91761565E+02</pdfrwt>
<totfact> 0.11175308E+05</totfact>
</mgrwt>
</event>
<event>
 7    1  0.3565607E-009  0.9063629E+02  0.7818608E-02  0.1301318E+00
         -1   -1    0    0    0  501 -0.00000000000E+00  0.00000000000E+00  0.95489942189E+01  0.95489955489E+01  0.50400000000E-02 0.  1.
          1   -1    0    0  501    0  0.00000000000E+00 -0.00000000000E+00 -0.21507336451E+03  0.21507336457E+03  0.50400000000E-02 0. -1.
         23    2    1    2    0    0  0.00000000000E+00 -0.44408920985E-15 -0.20552437029E+03  0.22462236012E+03  0.90636294504E+02 0.  0.
    9000005    2    3    3    0    0  0.40757257354E+02  0.31645337315E+01 -0.60870804060E+02  0.74303291055E+02  0.12023143260E+02 0.  0.
         22    1    3    3    0    0 -0.40757257354E+02 -0.31645337315E+01 -0.14465356623E+03  0.15031906906E+03  0.00000000000E+00 0. -1.
         22    1    4    4    0    0  0.82191631925E+01 -0.36194487836E+01 -0.91320229013E+01  0.12808157375E+02  0.00000000000E+00 0. -1.
         22    1    4    4    0    0  0.32538094161E+02  0.67839825151E+01 -0.51738781159E+02  0.61495133679E+02  0.00000000000E+00 0. -1.
<mgrwt>
<rscale>  0 0.90636295E+02</rscale>
<asrwt>0</asrwt>
<pdfrwt beam="2">  1        1 0.33088206E-01 0.90636295E+02</pdfrwt>
<pdfrwt beam="1">  1       -1 0.14690763E-02 0.90636295E+02</pdfrwt>
<totfact> 0.12201808E+05</totfact>
</mgrwt>
</event>
<event>
 7    1  0.3565607E-009  0.9152441E+02  0.7818608E-02  0.1299202E+00
         -1   -1    0    0    0  501 -0.00000000000E+00  0.00000000000E+00  0.37367590191E+03  0.37367590194E+03  0.50400000000E-02 0.  1.
          1   -1    0    0  501    0  0.00000000000E+00 -0.00000000000E+00 -0.56042653882E+01  0.56042676545E+01  0.50400000000E-02 0. -1.
         23    2    1    2    0    0 -0.71054273576E-14  0.00000000000E+00  0.36807163652E+03  0.37928016960E+03  0.91524408978E+02 0.  0.
    9000005    2    3    3    0    0  0.34511987592E+02 -0.91444005848E+01  0.29955221876E+03  0.30201693151E+03  0.14422128996E+02 0.  0.
         22    1    3    3    0    0 -0.34511987592E+02  0.91444005848E+01  0.68519417762E+02  0.77263238089E+02  0.00000000000E+00 0. -1.
         22    1    4    4    0    0  0.30115888428E+02 -0.21142291388E+01  0.23931045686E+03  0.24120723759E+03  0.00000000000E+00 0. -1.
         22    1    4    4    0    0  0.43960991637E+01 -0.70301714461E+01  0.60241761893E+02  0.60809693918E+02  0.00000000000E+00 0. -1.
<mgrwt>
<rscale>  0 0.91524409E+02</rscale>
<asrwt>0</asrwt>
<pdfrwt beam="2">  1        1 0.86219488E-03 0.91524409E+02</pdfrwt>
<pdfrwt beam="1">  1       -1 0.57488599E-01 0.91524409E+02</pdfrwt>
<totfact> 0.54552133E+04</totfact>
</mgrwt>
</event>
<event>
 7    1  0.3565607E-009  0.9510621E+02  0.7818608E-02  0.1290937E+00
          1   -1    0    0  501    0  0.00000000000E+00  0.00000000000E+00  0.29568187975E+03  0.29568187979E+03  0.50400000000E-02 0. -1.
         -1   -1    0    0    0  501 -0.00000000000E+00 -0.00000000000E+00 -0.76477371771E+01  0.76477388378E+01  0.50400000000E-02 0.  1.
         23    2    1    2    0    0  0.00000000000E+00  0.00000000000E+00  0.28803414257E+03  0.30332961863E+03  0.95106205113E+02 0.  0.
    9000005    2    3    3    0    0  0.40454684145E+02 -0.21241487249E+02  0.17938749430E+03  0.18546581405E+03  0.11397930484E+02 0.  0.
         22    1    3    3    0    0 -0.40454684145E+02  0.21241487249E+02  0.10864664827E+03  0.11786380458E+03  0.00000000000E+00 0.  1.
         22    1    4    4    0    0  0.19806009954E+01  0.14190710688E+01  0.87346000699E+01  0.90680638166E+01  0.00000000000E+00 0.  1.
         22    1    4    4    0    0  0.38474083150E+02 -0.22660558318E+02  0.17065289423E+03  0.17639775023E+03  0.00000000000E+00 0.  1.
<mgrwt>
<rscale>  0 0.95106205E+02</rscale>
<asrwt>0</asrwt>
<pdfrwt beam="1">  1        1 0.45489529E-01 0.95106205E+02</pdfrwt>
<pdfrwt beam="2">  1       -1 0.11765749E-02 0.95106205E+02</pdfrwt>
<totfact> 0.11414354E+05</totfact>
</mgrwt>
</event>
<event>
 7    1  0.3565607E-009  0.8902082E+02  0.7818608E-02  0.1305240E+00
          1   -1    0    0  501    0  0.00000000000E+00  0.00000000000E+00  0.16939790844E+02  0.16939791594E+02  0.50400000000E-02 0. -1.
         -1   -1    0    0    0  501 -0.00000000000E+00 -0.00000000000E+00 -0.11695402648E+03  0.11695402659E+03  0.50400000000E-02 0.  1.
         23    2    1    2    0    0  0.00000000000E+00  0.00000000000E+00 -0.10001423564E+03  0.13389381818E+03  0.89020824629E+02 0.  0.
    9000005    2    3    3    0    0  0.73208786516E+01  0.21994376037E+02 -0.10680695469E+03  0.10973830383E+03  0.98702541125E+01 0.  0.
         22    1    3    3    0    0 -0.73208786516E+01 -0.21994376037E+02  0.67927190518E+01  0.24155514352E+02  0.00000000000E+00 0. -1.
         22    1    4    4    0    0  0.65601454016E+01  0.89364191812E+01 -0.33878675312E+02  0.35646314485E+02  0.00000000000E+00 0.  1.
         22    1    4    4    0    0  0.76073324996E+00  0.13057956856E+02 -0.72928279378E+02  0.74091989347E+02  0.00000000000E+00 0.  1.
<mgrwt>
<rscale>  0 0.89020825E+02</rscale>
<asrwt>0</asrwt>
<pdfrwt beam="1">  1        1 0.26061218E-02 0.89020825E+02</pdfrwt>
<pdfrwt beam="2">  1       -1 0.17992927E-01 0.89020825E+02</pdfrwt>
<totfact> 0.83970098E+04</totfact>
</mgrwt>
</event>
<event>
 7    1  0.3565607E-009  0.8900479E+02  0.7818608E-02  0.1305280E+00
          1   -1    0    0  501    0  0.00000000000E+00  0.00000000000E+00  0.37891470961E+03  0.37891470964E+03  0.50400000000E-02 0. -1.
         -1   -1    0    0    0  501 -0.00000000000E+00 -0.00000000000E+00 -0.52266718374E+01  0.52266742674E+01  0.50400000000E-02 0.  1.
         23    2    1    2    0    0  0.00000000000E+00  0.00000000000E+00  0.37368803777E+03  0.38414138391E+03  0.89004793459E+02 0.  0.
    9000005    2    3    3    0    0  0.34880689200E+02 -0.26225362533E+02  0.21857519475E+03  0.22300657640E+03  0.72377649485E+01 0.  0.
         22    1    3    3    0    0 -0.34880689200E+02  0.26225362533E+02  0.15511284303E+03  0.16113480751E+03  0.00000000000E+00 0. -1.
         22    1    4    4    0    0  0.23470801551E+02 -0.13249339481E+02  0.13159476890E+03  0.13432649301E+03  0.00000000000E+00 0. -1.
         22    1    4    4    0    0  0.11409887649E+02 -0.12976023051E+02  0.86980425843E+02  0.88680083390E+02  0.00000000000E+00 0. -1.
<mgrwt>
<rscale>  0 0.89004793E+02</rscale>
<asrwt>0</asrwt>
<pdfrwt beam="1">  1        1 0.58294561E-01 0.89004793E+02</pdfrwt>
<pdfrwt beam="2">  1       -1 0.80410369E-03 0.89004793E+02</pdfrwt>
<totfact> 0.14250052E+05</totfact>
</mgrwt>
</event>
<event>
 7    1  0.3565607E-009  0.9194017E+02  0.7818608E-02  0.1298220E+00
         -1   -1    0    0    0  501 -0.00000000000E+00  0.00000000000E+00  0.18414641833E+02  0.18414642522E+02  0.50400000000E-02 0.  1.
          1   -1    0    0  501    0  0.00000000000E+00 -0.00000000000E+00 -0.11475915140E+03  0.11475915151E+03  0.50400000000E-02 0. -1.
         23    2    1    2    0    0  0.17763568394E-14 -0.17763568394E-14 -0.96344509563E+02  0.13317379403E+03  0.91940170182E+02 0.  0.
    9000005    2    3    3    0    0  0.14387942173E+02 -0.10444759639E+02 -0.10956671725E+03  0.11101679378E+03  0.19383208381E+01 0.  0.
         22    1    3    3    0    0 -0.14387942173E+02  0.10444759639E+02  0.13222207689E+02  0.22157000250E+02  0.00000000000E+00 0.  1.
         22    1    4    4    0    0  0.13544461537E+02 -0.97133387124E+01 -0.10505744010E+03  0.10637136414E+03  0.00000000000E+00 0. -1.
         22    1    4    4    0    0  0.84348063609E+00 -0.73142092701E+00 -0.45092771484E+01  0.46454296419E+01  0.00000000000E+00 0. -1.
<mgrwt>
<rscale>  0 0.91940170E+02</rscale>
<asrwt>0</asrwt>
<pdfrwt beam="2">  1        1 0.17655254E-01 0.91940170E+02</pdfrwt>
<pdfrwt beam="1">  1       -1 0.28330219E-02 0.91940170E+02</pdfrwt>
<totfact> 0.10451435E+05</totfact>
</mgrwt>
</event>
<event>
 7    1  0.3565607E-009  0.9035253E+02  0.7818608E-02  0.1302000E+00
         -1   -1    0    0    0  501 -0.00000000000E+00  0.00000000000E+00  0.27484564283E+01  0.27484610494E+01  0.50400000000E-02 0.  1.
          1   -1    0    0  501    0  0.00000000000E+00 -0.00000000000E+00 -0.74255979181E+03  0.74255979183E+03  0.50400000000E-02 0. -1.
         23    2    1    2    0    0  0.35527136788E-14  0.00000000000E+00 -0.73981133538E+03  0.74530825288E+03  0.90352530936E+02 0.  0.
    9000005    2    3    3    0    0  0.26982207160E+02  0.27653074570E+02 -0.55475766638E+03  0.55626436261E+03  0.13462565329E+02 0.  0.
         22    1    3    3    0    0 -0.26982207160E+02 -0.27653074570E+02 -0.18505366900E+03  0.18904389027E+03  0.00000000000E+00 0.  1.
         22    1    4    4    0    0  0.21226709593E+02  0.22461673441E+02 -0.35054941904E+03  0.35190907229E+03  0.00000000000E+00 0.  1.
         22    1    4    4    0    0  0.57554975671E+01  0.51914011291E+01 -0.20420824734E+03  0.20435529032E+03  0.00000000000E+00 0.  1.
<mgrwt>
<rscale>  0 0.90352531E+02</rscale>
<asrwt>0</asrwt>
<pdfrwt beam="2">  1        1 0.11423981E+00 0.90352531E+02</pdfrwt>
<pdfrwt beam="1">  1       -1 0.42284040E-03 0.90352531E+02</pdfrwt>
<totfact> 0.14541744E+05</totfact>
</mgrwt>
</event>
<event>
 7    1  0.3565607E-009  0.9312670E+02  0.7818608E-02  0.1295452E+00
          1   -1    0    0  501    0  0.00000000000E+00  0.00000000000E+00  0.50361538466E+02  0.50361538718E+02  0.50400000000E-02 0. -1.
         -1   -1    0    0    0  501 -0.00000000000E+00 -0.00000000000E+00 -0.43051614626E+02  0.43051614921E+02  0.50400000000E-02 0.  1.
         23    2    1    2    0    0  0.00000000000E+00  0.00000000000E+00  0.73099238397E+01  0.93413153640E+02  0.93126700180E+02 0.  0.
    9000005    2    3    3    0    0 -0.11197197958E+02  0.28274842649E+02  0.37466956395E+02  0.50584534920E+02  0.15171630849E+02 0.  0.
         22    1    3    3    0    0  0.11197197958E+02 -0.28274842649E+02 -0.30157032555E+02  0.42828618720E+02  0.00000000000E+00 0.  1.
         22    1    4    4    0    0 -0.81460179048E+01  0.64020925541E+01  0.19630058954E+02  0.22196477453E+02  0.00000000000E+00 0.  1.
         22    1    4    4    0    0 -0.30511800535E+01  0.21872750095E+02  0.17836897441E+02  0.28388057467E+02  0.00000000000E+00 0.  1.
<mgrwt>
<rscale>  0 0.93126700E+02</rscale>
<asrwt>0</asrwt>
<pdfrwt beam="1">  1        1 0.77479290E-02 0.93126700E+02</pdfrwt>
<pdfrwt beam="2">  1       -1 0.66233254E-02 0.93126700E+02</pdfrwt>
<totfact> 0.88462357E+04</totfact>
</mgrwt>
</event>
<event>
 7    1  0.3565607E-009  0.9077971E+02  0.7818608E-02  0.1300974E+00
          1   -1    0    0  501    0  0.00000000000E+00  0.00000000000E+00  0.36251560208E+02  0.36251560558E+02  0.50400000000E-02 0. -1.
         -1   -1    0    0    0  501 -0.00000000000E+00 -0.00000000000E+00 -0.56831736415E+02  0.56831736639E+02  0.50400000000E-02 0.  1.
         23    2    1    2    0    0  0.00000000000E+00  0.00000000000E+00 -0.20580176207E+02  0.93083297197E+02  0.90779714498E+02 0.  0.
    9000005    2    3    3    0    0  0.11515472695E+02  0.16878162244E+02 -0.51740697104E+02  0.55821298664E+02  0.46302457388E+01 0.  0.
         22    1    3    3    0    0 -0.11515472695E+02 -0.16878162244E+02  0.31160520897E+02  0.37261998533E+02  0.00000000000E+00 0. -1.
         22    1    4    4    0    0  0.17764035045E+01  0.50324730411E+01 -0.17672504824E+02  0.18460737284E+02  0.00000000000E+00 0. -1.
         22    1    4    4    0    0  0.97390691904E+01  0.11845689203E+02 -0.34068192280E+02  0.37360561380E+02  0.00000000000E+00 0. -1.
<mgrwt>
<rscale>  0 0.90779714E+02</rscale>
<asrwt>0</asrwt>
<pdfrwt beam="1">  1        1 0.55771632E-02 0.90779714E+02</pdfrwt>
<pdfrwt beam="2">  1       -1 0.87433441E-02 0.90779714E+02</pdfrwt>
<totfact> 0.90421608E+04</totfact>
</mgrwt>
</event>
<event>
 7    1  0.3565607E-009  0.9121748E+02  0.7818608E-02  0.1299930E+00
         -1   -1    0    0    0  501 -0.00000000000E+00  0.00000000000E+00  0.49338354885E+02  0.49338355142E+02  0.50400000000E-02 0.  1.
          1   -1    0    0  501    0  0.00000000000E+00 -0.00000000000E+00 -0.42161059244E+02  0.42161059545E+02  0.50400000000E-02 0. -1.
         23    2    1    2    0    0  0.00000000000E+00  0.17763568394E-14  0.71772956409E+01  0.91499414688E+02  0.91217483607E+02 0.  0.
    9000005    2    3    3    0    0 -0.10416365327E+02  0.11930041396E+02 -0.38857977451E+02  0.42816019952E+02  0.85113217926E+01 0.  0.
         22    1    3    3    0    0  0.10416365327E+02 -0.11930041396E+02  0.46035273092E+02  0.48683394735E+02  0.00000000000E+00 0.  1.
         22    1    4    4    0    0  0.46075573259E+00 -0.93616802133E+00 -0.34454127402E+01  0.35999410216E+01  0.00000000000E+00 0.  1.
         22    1    4    4    0    0 -0.10877121060E+02  0.12866209417E+02 -0.35412564711E+02  0.39216078931E+02  0.00000000000E+00 0.  1.
<mgrwt>
<rscale>  0 0.91217484E+02</rscale>
<asrwt>0</asrwt>
<pdfrwt beam="2">  1        1 0.64863168E-02 0.91217484E+02</pdfrwt>
<pdfrwt beam="1">  1       -1 0.75905162E-02 0.91217484E+02</pdfrwt>
<totfact> 0.91274681E+04</totfact>
</mgrwt>
</event>
<event>
 7    1  0.3565607E-009  0.9213223E+02  0.7818608E-02  0.1297769E+00
          1   -1    0    0  501    0  0.00000000000E+00  0.00000000000E+00  0.10492304597E+03  0.10492304609E+03  0.50400000000E-02 0. -1.
         -1   -1    0    0    0  501 -0.00000000000E+00 -0.00000000000E+00 -0.20225174249E+02  0.20225174877E+02  0.50400000000E-02 0.  1.
         23    2    1    2    0    0  0.00000000000E+00  0.00000000000E+00  0.84697871722E+02  0.12514822097E+03  0.92132229635E+02 0.  0.
    9000005    2    3    3    0    0  0.53335696846E+01  0.36303792703E+02  0.53923557426E+01  0.37765286737E+02  0.71222925880E+01 0.  0.
         22    1    3    3    0    0 -0.53335696846E+01 -0.36303792703E+02  0.79305515980E+02  0.87382934232E+02  0.00000000000E+00 0. -1.
         22    1    4    4    0    0  0.13349758517E+01  0.28458538917E+02  0.51820285268E+01  0.28957279180E+02  0.00000000000E+00 0. -1.
         22    1    4    4    0    0  0.39985938329E+01  0.78452537855E+01  0.21032721583E+00  0.88080075577E+01  0.00000000000E+00 0. -1.
<mgrwt>
<rscale>  0 0.92132230E+02</rscale>
<asrwt>0</asrwt>
<pdfrwt beam="1">  1        1 0.16142007E-01 0.92132230E+02</pdfrwt>
<pdfrwt beam="2">  1       -1 0.31115654E-02 0.92132230E+02</pdfrwt>
<totfact> 0.10234395E+05</totfact>
</mgrwt>
</event>
<event>
 7    1  0.3565607E-009  0.9392586E+02  0.7818608E-02  0.1293614E+00
          1   -1    0    0  501    0  0.00000000000E+00  0.00000000000E+00  0.21355174329E+02  0.21355174924E+02  0.50400000000E-02 0. -1.
         -1   -1    0    0    0  501 -0.00000000000E+00 -0.00000000000E+00 -0.10327787170E+03  0.10327787183E+03  0.50400000000E-02 0.  1.
         23    2    1    2    0    0  0.00000000000E+00  0.00000000000E+00 -0.81922697373E+02  0.12463304675E+03  0.93925864366E+02 0.  0.
    9000005    2    3    3    0    0 -0.36438729396E+02 -0.12050387274E+02 -0.83798356877E+01  0.41677966504E+02  0.13922586409E+02 0.  0.
         22    1    3    3    0    0  0.36438729396E+02  0.12050387274E+02 -0.73542861686E+02  0.82955080245E+02  0.00000000000E+00 0.  1.
         22    1    4    4    0    0 -0.35960219585E+02 -0.13969420890E+02 -0.89828824522E+01  0.39610280102E+02  0.00000000000E+00 0. -1.
         22    1    4    4    0    0 -0.47850981109E+00  0.19190336160E+01  0.60304676448E+00  0.20676864024E+01  0.00000000000E+00 0. -1.
<mgrwt>
<rscale>  0 0.93925864E+02</rscale>
<asrwt>0</asrwt>
<pdfrwt beam="1">  1        1 0.32854115E-02 0.93925864E+02</pdfrwt>
<pdfrwt beam="2">  1       -1 0.15888903E-01 0.93925864E+02</pdfrwt>
<totfact> 0.74911505E+04</totfact>
</mgrwt>
</event>
<event>
 7    1  0.3565607E-009  0.8017405E+02  0.7818608E-02  0.1328558E+00
          1   -1    0    0  501    0  0.00000000000E+00  0.00000000000E+00  0.65878933932E+03  0.65878933934E+03  0.50400000000E-02 0. -1.
         -1   -1    0    0    0  501 -0.00000000000E+00 -0.00000000000E+00 -0.24392741651E+01  0.24392793719E+01  0.50400000000E-02 0.  1.
         23    2    1    2    0    0  0.00000000000E+00  0.00000000000E+00  0.65635006515E+03  0.66122861871E+03  0.80174049255E+02 0.  0.
    9000005    2    3    3    0    0  0.71444586679E+01  0.20472060483E+02  0.60470659386E+03  0.60521793511E+03  0.12187525214E+02 0.  0.
         22    1    3    3    0    0 -0.71444586679E+01 -0.20472060483E+02  0.51643471292E+02  0.56010683598E+02  0.00000000000E+00 0.  1.
         22    1    4    4    0    0  0.73554370950E+01  0.49293977665E+01  0.16591161534E+03  0.16614772199E+03  0.00000000000E+00 0.  1.
         22    1    4    4    0    0 -0.21097842705E+00  0.15542662716E+02  0.43879497852E+03  0.43907021312E+03  0.00000000000E+00 0.  1.
<mgrwt>
<rscale>  0 0.80174049E+02</rscale>
<asrwt>0</asrwt>
<pdfrwt beam="1">  1        1 0.10135218E+00 0.80174049E+02</pdfrwt>
<pdfrwt beam="2">  1       -1 0.37527345E-03 0.80174049E+02</pdfrwt>
<totfact> 0.19929002E+05</totfact>
</mgrwt>
</event>
<event>
 7    1  0.3565607E-009  0.9823865E+02  0.7818608E-02  0.1284044E+00
          1   -1    0    0  501    0  0.00000000000E+00  0.00000000000E+00  0.23878307124E+02  0.23878307655E+02  0.50400000000E-02 0. -1.
         -1   -1    0    0    0  501 -0.00000000000E+00 -0.00000000000E+00 -0.10104183887E+03  0.10104183900E+03  0.50400000000E-02 0.  1.
         23    2    1    2    0    0  0.00000000000E+00 -0.11102230246E-15 -0.77163531748E+02  0.12492014665E+03  0.98238650275E+02 0.  0.
    9000005    2    3    3    0    0 -0.29485468287E+02  0.77891862191E+00 -0.88103291639E+02  0.93461000117E+02  0.10137504174E+02 0.  0.
         22    1    3    3    0    0  0.29485468287E+02 -0.77891862191E+00  0.10939759891E+02  0.31459146536E+02  0.00000000000E+00 0. -1.
         22    1    4    4    0    0 -0.28366977303E+02 -0.15033998108E+01 -0.77062861014E+02  0.82131785321E+02  0.00000000000E+00 0.  1.
         22    1    4    4    0    0 -0.11184909838E+01  0.22823184327E+01 -0.11040430625E+02  0.11329214796E+02  0.00000000000E+00 0.  1.
<mgrwt>
<rscale>  0 0.98238650E+02</rscale>
<asrwt>0</asrwt>
<pdfrwt beam="1">  1        1 0.36735858E-02 0.98238650E+02</pdfrwt>
<pdfrwt beam="2">  1       -1 0.15544898E-01 0.98238650E+02</pdfrwt>
<totfact> 0.66991933E+04</totfact>
</mgrwt>
</event>
<event>
 7    1  0.3565607E-009  0.1020817E+03  0.7818608E-02  0.1275978E+00
         -1   -1    0    0    0  501 -0.00000000000E+00  0.00000000000E+00  0.47102174797E+01  0.47102201762E+01  0.50400000000E-02 0.  1.
          1   -1    0    0  501    0  0.00000000000E+00 -0.00000000000E+00 -0.55308872644E+03  0.55308872646E+03  0.50400000000E-02 0. -1.
         23    2    1    2    0    0  0.88817841970E-15  0.35527136788E-14 -0.54837850896E+03  0.55779894664E+03  0.10208171130E+03 0.  0.
    9000005    2    3    3    0    0  0.44520415637E+01  0.14246975822E+02 -0.54058462399E+03  0.54096025200E+03  0.13544798205E+02 0.  0.
         22    1    3    3    0    0 -0.44520415637E+01 -0.14246975822E+02 -0.77938849725E+01  0.16838694639E+02  0.00000000000E+00 0.  1.
         22    1    4    4    0    0  0.22272150837E+01 -0.24341435118E+01 -0.78602013165E+02  0.78671227366E+02  0.00000000000E+00 0.  1.
         22    1    4    4    0    0  0.22248264799E+01  0.16681119334E+02 -0.46198261082E+03  0.46228902463E+03  0.00000000000E+00 0.  1.
<mgrwt>
<rscale>  0 0.10208171E+03</rscale>
<asrwt>0</asrwt>
<pdfrwt beam="2">  1        1 0.85090522E-01 0.10208171E+03</pdfrwt>
<pdfrwt beam="1">  1       -1 0.72464949E-03 0.10208171E+03</pdfrwt>
<totfact> 0.10416632E+05</totfact>
</mgrwt>
</event>
<event>
 7    1  0.3565607E-009  0.9133758E+02  0.7818608E-02  0.1299645E+00
         -1   -1    0    0    0  501 -0.00000000000E+00  0.00000000000E+00  0.56884383403E+01  0.56884405730E+01  0.50400000000E-02 0.  1.
          1   -1    0    0  501    0  0.00000000000E+00 -0.00000000000E+00 -0.36664510359E+03  0.36664510362E+03  0.50400000000E-02 0. -1.
         23    2    1    2    0    0  0.00000000000E+00  0.35527136788E-14 -0.36095666525E+03  0.37233354420E+03  0.91337582334E+02 0.  0.
    9000005    2    3    3    0    0  0.37120800623E+02  0.25441816416E+02 -0.19525005869E+03  0.20062472288E+03  0.10121963741E+02 0.  0.
         22    1    3    3    0    0 -0.37120800623E+02 -0.25441816416E+02 -0.16570660656E+03  0.17170882132E+03  0.00000000000E+00 0.  1.
         22    1    4    4    0    0  0.25418131525E+02  0.12435573534E+02 -0.10860949404E+03  0.11223523108E+03  0.00000000000E+00 0. -1.
         22    1    4    4    0    0  0.11702669098E+02  0.13006242883E+02 -0.86640564645E+02  0.88389491796E+02  0.00000000000E+00 0. -1.
<mgrwt>
<rscale>  0 0.91337582E+02</rscale>
<asrwt>0</asrwt>
<pdfrwt beam="2">  1        1 0.56406921E-01 0.91337582E+02</pdfrwt>
<pdfrwt beam="1">  1       -1 0.87514482E-03 0.91337582E+02</pdfrwt>
<totfact> 0.13229443E+05</totfact>
</mgrwt>
</event>
<event>
 7    1  0.3565607E-009  0.9555725E+02  0.7818608E-02  0.1289926E+00
          1   -1    0    0  501    0  0.00000000000E+00  0.00000000000E+00  0.56077617036E+01  0.56077639685E+01  0.50400000000E-02 0. -1.
         -1   -1    0    0    0  501 -0.00000000000E+00 -0.00000000000E+00 -0.40707800685E+03  0.40707800689E+03  0.50400000000E-02 0.  1.
         23    2    1    2    0    0  0.00000000000E+00  0.00000000000E+00 -0.40147024515E+03  0.41268577085E+03  0.95557248411E+02 0.  0.
    9000005    2    3    3    0    0 -0.35006025861E+02  0.16278475954E+02 -0.32153626369E+03  0.32391724030E+03  0.68116858718E+01 0.  0.
         22    1    3    3    0    0  0.35006025861E+02 -0.16278475954E+02 -0.79933981457E+02  0.88768530559E+02  0.00000000000E+00 0. -1.
         22    1    4    4    0    0 -0.86544890127E+01  0.26860926832E+01 -0.99108017291E+02  0.99521426665E+02  0.00000000000E+00 0. -1.
         22    1    4    4    0    0 -0.26351536849E+02  0.13592383270E+02 -0.22242824640E+03  0.22439581363E+03  0.00000000000E+00 0. -1.
<mgrwt>
<rscale>  0 0.95557248E+02</rscale>
<asrwt>0</asrwt>
<pdfrwt beam="1">  1        1 0.86273307E-03 0.95557248E+02</pdfrwt>
<pdfrwt beam="2">  1       -1 0.62627362E-01 0.95557248E+02</pdfrwt>
<totfact> 0.46693039E+04</totfact>
</mgrwt>
</event>
<event>
 7    1  0.3565607E-009  0.9031044E+02  0.7818608E-02  0.1302102E+00
          1   -1    0    0  501    0  0.00000000000E+00  0.00000000000E+00  0.45407882415E+03  0.45407882418E+03  0.50400000000E-02 0. -1.
         -1   -1    0    0    0  501 -0.00000000000E+00 -0.00000000000E+00 -0.44903945584E+01  0.44903973868E+01  0.50400000000E-02 0.  1.
         23    2    1    2    0    0  0.00000000000E+00  0.00000000000E+00  0.44958842960E+03  0.45856922157E+03  0.90310436518E+02 0.  0.
    9000005    2    3    3    0    0  0.20081503620E+02 -0.38426848795E+02  0.28108913349E+03  0.28458099701E+03  0.97649064996E+01 0.  0.
         22    1    3    3    0    0 -0.20081503620E+02  0.38426848795E+02  0.16849929611E+03  0.17398822456E+03  0.00000000000E+00 0.  1.
         22    1    4    4    0    0  0.21577655625E+01 -0.44491524529E+01  0.16735902231E+02  0.17451112665E+02  0.00000000000E+00 0.  1.
         22    1    4    4    0    0  0.17923738058E+02 -0.33977696342E+02  0.26435323126E+03  0.26712988434E+03  0.00000000000E+00 0.  1.
<mgrwt>
<rscale>  0 0.90310437E+02</rscale>
<asrwt>0</asrwt>
<pdfrwt beam="1">  1        1 0.69858299E-01 0.90310437E+02</pdfrwt>
<pdfrwt beam="2">  1       -1 0.69082997E-03 0.90310437E+02</pdfrwt>
<totfact> 0.14105773E+05</totfact>
</mgrwt>
</event>
<event>
 7    1  0.3565607E-009  0.9195077E+02  0.7818608E-02  0.1298195E+00
          1   -1    0    0  501    0  0.00000000000E+00  0.00000000000E+00  0.11620287575E+04  0.11620287575E+04  0.50400000000E-02 0. -1.
         -1   -1    0    0    0  501 -0.00000000000E+00 -0.00000000000E+00 -0.18190015209E+01  0.18190085032E+01  0.50400000000E-02 0.  1.
         23    2    1    2    0    0  0.00000000000E+00 -0.17763568394E-14  0.11602097560E+04  0.11638477660E+04  0.91950772627E+02 0.  0.
    9000005    2    3    3    0    0  0.15084461937E+02 -0.12320690411E+02  0.11059369607E+04  0.11061860221E+04  0.13100153738E+02 0.  0.
         22    1    3    3    0    0 -0.15084461937E+02  0.12320690411E+02  0.54272795212E+02  0.57661743854E+02  0.00000000000E+00 0.  1.
         22    1    4    4    0    0  0.45455665346E+01 -0.73520852382E+01  0.21612719996E+03  0.21629998127E+03  0.00000000000E+00 0.  1.
         22    1    4    4    0    0  0.10538895402E+02 -0.49686051727E+01  0.88980976078E+03  0.88988604087E+03  0.00000000000E+00 0.  1.
<mgrwt>
<rscale>  0 0.91950773E+02</rscale>
<asrwt>0</asrwt>
<pdfrwt beam="1">  1        1 0.17877348E+00 0.91950773E+02</pdfrwt>
<pdfrwt beam="2">  1       -1 0.27984719E-03 0.91950773E+02</pdfrwt>
<totfact> 0.12630166E+05</totfact>
</mgrwt>
</event>
<event>
 7    1  0.3565607E-009  0.9238728E+02  0.7818608E-02  0.1297171E+00
          1   -1    0    0  501    0  0.00000000000E+00  0.00000000000E+00  0.49621572590E+02  0.49621572846E+02  0.50400000000E-02 0. -1.
         -1   -1    0    0    0  501 -0.00000000000E+00 -0.00000000000E+00 -0.43002511499E+02  0.43002511794E+02  0.50400000000E-02 0.  1.
         23    2    1    2    0    0  0.00000000000E+00  0.00000000000E+00  0.66190610910E+01  0.92624084640E+02  0.92387277726E+02 0.  0.
    9000005    2    3    3    0    0 -0.39583216596E+02 -0.15897490454E+02 -0.12602607384E+02  0.45836973404E+02  0.11074347797E+02 0.  0.
         22    1    3    3    0    0  0.39583216596E+02  0.15897490454E+02  0.19221668475E+02  0.46787111236E+02  0.00000000000E+00 0. -1.
         22    1    4    4    0    0 -0.24060320195E+02 -0.15344366257E+02 -0.80219049869E+01  0.29642866652E+02  0.00000000000E+00 0.  1.
         22    1    4    4    0    0 -0.15522896401E+02 -0.55312419771E+00 -0.45807023967E+01  0.16194106752E+02  0.00000000000E+00 0.  1.
<mgrwt>
<rscale>  0 0.92387278E+02</rscale>
<asrwt>0</asrwt>
<pdfrwt beam="1">  1        1 0.76340881E-02 0.92387278E+02</pdfrwt>
<pdfrwt beam="2">  1       -1 0.66157711E-02 0.92387278E+02</pdfrwt>
<totfact> 0.90259418E+04</totfact>
</mgrwt>
</event>
<event>
 7    1  0.3565607E-009  0.9132812E+02  0.7818608E-02  0.1299667E+00
         -1   -1    0    0    0  501 -0.00000000000E+00  0.00000000000E+00  0.28835006574E+01  0.28835050620E+01  0.50400000000E-02 0.  1.
          1   -1    0    0  501    0  0.00000000000E+00 -0.00000000000E+00 -0.72315040737E+03  0.72315040739E+03  0.50400000000E-02 0. -1.
         23    2    1    2    0    0 -0.35527136788E-14 -0.35527136788E-14 -0.72026690671E+03  0.72603391245E+03  0.91328117913E+02 0.  0.
    9000005    2    3    3    0    0  0.19584290270E+02  0.17201409442E+02 -0.65802440843E+03  0.65855383017E+03  0.41943089644E+01 0.  0.
         22    1    3    3    0    0 -0.19584290270E+02 -0.17201409442E+02 -0.62242498281E+02  0.67480082280E+02  0.00000000000E+00 0.  1.
         22    1    4    4    0    0  0.18502744407E-01  0.81490212113E+00 -0.13750801464E+02  0.13774939155E+02  0.00000000000E+00 0.  1.
         22    1    4    4    0    0  0.19565787526E+02  0.16386507321E+02 -0.64427360697E+03  0.64477889101E+03  0.00000000000E+00 0.  1.
<mgrwt>
<rscale>  0 0.91328118E+02</rscale>
<asrwt>0</asrwt>
<pdfrwt beam="2">  1        1 0.11125376E+00 0.91328118E+02</pdfrwt>
<pdfrwt beam="1">  1       -1 0.44361640E-03 0.91328118E+02</pdfrwt>
<totfact> 0.14147236E+05</totfact>
</mgrwt>
</event>
<event>
 7    1  0.3565607E-009  0.9165350E+02  0.7818608E-02  0.1298896E+00
          1   -1    0    0  501    0  0.00000000000E+00  0.00000000000E+00  0.14022418835E+04  0.14022418835E+04  0.50400000000E-02 0. -1.
         -1   -1    0    0    0  501 -0.00000000000E+00 -0.00000000000E+00 -0.14976625262E+01  0.14976710066E+01  0.50400000000E-02 0.  1.
         23    2    1    2    0    0  0.88817841970E-15  0.35527136788E-14  0.14007442210E+04  0.14037395546E+04  0.91653501410E+02 0.  0.
    9000005    2    3    3    0    0 -0.72304089338E+01 -0.30135618757E+02  0.12173429977E+04  0.12177383636E+04  0.15211030761E+01 0.  0.
         22    1    3    3    0    0  0.72304089338E+01  0.30135618757E+02  0.18340122329E+03  0.18600119095E+03  0.00000000000E+00 0.  1.
         22    1    4    4    0    0 -0.58303485859E+01 -0.25237010217E+02  0.10368301037E+04  0.10371535873E+04  0.00000000000E+00 0.  1.
         22    1    4    4    0    0 -0.14000603479E+01 -0.48986085392E+01  0.18051289399E+03  0.18058477630E+03  0.00000000000E+00 0.  1.
<mgrwt>
<rscale>  0 0.91653501E+02</rscale>
<asrwt>0</asrwt>
<pdfrwt beam="1">  1        1 0.21572952E+00 0.91653501E+02</pdfrwt>
<pdfrwt beam="2">  1       -1 0.23041027E-03 0.91653501E+02</pdfrwt>
<totfact> 0.11470849E+05</totfact>
</mgrwt>
</event>
<event>
 7    1  0.3565607E-009  0.9299894E+02  0.7818608E-02  0.1295748E+00
         -1   -1    0    0    0  501 -0.00000000000E+00  0.00000000000E+00  0.40221693801E+01  0.40221725378E+01  0.50400000000E-02 0.  1.
          1   -1    0    0  501    0  0.00000000000E+00 -0.00000000000E+00 -0.53757060294E+03  0.53757060297E+03  0.50400000000E-02 0. -1.
         23    2    1    2    0    0  0.00000000000E+00  0.00000000000E+00 -0.53354843356E+03  0.54159277550E+03  0.92998943656E+02 0.  0.
    9000005    2    3    3    0    0  0.80033088276E+01  0.61443857150E+01 -0.53094817492E+03  0.53117318947E+03  0.11712657155E+02 0.  0.
         22    1    3    3    0    0 -0.80033088276E+01 -0.61443857150E+01 -0.26002586416E+01  0.10419586029E+02  0.00000000000E+00 0.  1.
         22    1    4    4    0    0  0.35981815153E+00 -0.27479531109E+01 -0.19645604447E+03  0.19647559168E+03  0.00000000000E+00 0. -1.
         22    1    4    4    0    0  0.76434906761E+01  0.88923388259E+01 -0.33449213045E+03  0.33469759780E+03  0.00000000000E+00 0. -1.
<mgrwt>
<rscale>  0 0.92998944E+02</rscale>
<asrwt>0</asrwt>
<pdfrwt beam="2">  1        1 0.82703113E-01 0.92998944E+02</pdfrwt>
<pdfrwt beam="1">  1       -1 0.61879596E-03 0.92998944E+02</pdfrwt>
<totfact> 0.13318359E+05</totfact>
</mgrwt>
</event>
<event>
 7    1  0.3565607E-009  0.9145278E+02  0.7818608E-02  0.1299371E+00
         -1   -1    0    0    0  501 -0.00000000000E+00  0.00000000000E+00  0.87491316071E+02  0.87491316216E+02  0.50400000000E-02 0.  1.
          1   -1    0    0  501    0  0.00000000000E+00 -0.00000000000E+00 -0.23898400916E+02  0.23898401448E+02  0.50400000000E-02 0. -1.
         23    2    1    2    0    0  0.00000000000E+00  0.00000000000E+00  0.63592915155E+02  0.11138971766E+03  0.91452776575E+02 0.  0.
    9000005    2    3    3    0    0 -0.18956409449E+02 -0.40895447782E+02  0.34561969344E+02  0.57774617895E+02  0.10563789070E+02 0.  0.
         22    1    3    3    0    0  0.18956409449E+02  0.40895447782E+02  0.29030945812E+02  0.53615099769E+02  0.00000000000E+00 0. -1.
         22    1    4    4    0    0 -0.30464416792E+01 -0.48604812896E+01  0.60578854119E+00  0.57681942606E+01  0.00000000000E+00 0.  1.
         22    1    4    4    0    0 -0.15909967770E+02 -0.36034966493E+02  0.33956180802E+02  0.52006423635E+02  0.00000000000E+00 0.  1.
<mgrwt>
<rscale>  0 0.91452777E+02</rscale>
<asrwt>0</asrwt>
<pdfrwt beam="2">  1        1 0.36766771E-02 0.91452777E+02</pdfrwt>
<pdfrwt beam="1">  1       -1 0.13460203E-01 0.91452777E+02</pdfrwt>
<totfact> 0.82711918E+04</totfact>
</mgrwt>
</event>
<event>
 7    1  0.3565607E-009  0.8946051E+02  0.7818608E-02  0.1304163E+00
         -1   -1    0    0    0  501 -0.00000000000E+00  0.00000000000E+00  0.20847291213E+02  0.20847291822E+02  0.50400000000E-02 0.  1.
          1   -1    0    0  501    0  0.00000000000E+00 -0.00000000000E+00 -0.95973899415E+02  0.95973899548E+02  0.50400000000E-02 0. -1.
         23    2    1    2    0    0  0.00000000000E+00  0.00000000000E+00 -0.75126608203E+02  0.11682119137E+03  0.89460513597E+02 0.  0.
    9000005    2    3    3    0    0  0.26323700543E+02  0.26003061535E+02 -0.62917270890E+01  0.38671736622E+02  0.93177767794E+01 0.  0.
         22    1    3    3    0    0 -0.26323700543E+02 -0.26003061535E+02 -0.68834881114E+02  0.78149454748E+02  0.00000000000E+00 0. -1.
         22    1    4    4    0    0  0.25637478452E+02  0.26376603582E+02 -0.49441074328E+01  0.37114009702E+02  0.00000000000E+00 0.  1.
         22    1    4    4    0    0  0.68622209073E+00 -0.37354204623E+00 -0.13476196561E+01  0.15577269195E+01  0.00000000000E+00 0.  1.
<mgrwt>
<rscale>  0 0.89460514E+02</rscale>
<asrwt>0</asrwt>
<pdfrwt beam="2">  1        1 0.14765215E-01 0.89460514E+02</pdfrwt>
<pdfrwt beam="1">  1       -1 0.32072757E-02 0.89460514E+02</pdfrwt>
<totfact> 0.10925540E+05</totfact>
</mgrwt>
</event>
<event>
 7    1  0.3565607E-009  0.9036241E+02  0.7818608E-02  0.1301976E+00
         -1   -1    0    0    0  501 -0.00000000000E+00  0.00000000000E+00  0.14887159693E+01  0.14887245007E+01  0.50400000000E-02 0.  1.
          1   -1    0    0  501    0  0.00000000000E+00 -0.00000000000E+00 -0.13712053774E+04  0.13712053775E+04  0.50400000000E-02 0. -1.
         23    2    1    2    0    0  0.00000000000E+00 -0.88817841970E-15 -0.13697166615E+04  0.13726941020E+04  0.90362408211E+02 0.  0.
    9000005    2    3    3    0    0 -0.23205424006E+02  0.48310451619E+01 -0.12674776766E+04  0.12677434434E+04  0.10580497550E+02 0.  0.
         22    1    3    3    0    0  0.23205424006E+02 -0.48310451619E+01 -0.10223898488E+03  0.10495065855E+03  0.00000000000E+00 0.  1.
         22    1    4    4    0    0 -0.22144366448E+01 -0.27639457750E+01 -0.21381690834E+03  0.21384623779E+03  0.00000000000E+00 0. -1.
         22    1    4    4    0    0 -0.20990987361E+02  0.75949909369E+01 -0.10536607683E+04  0.10538972056E+04  0.00000000000E+00 0. -1.
<mgrwt>
<rscale>  0 0.90362408E+02</rscale>
<asrwt>0</asrwt>
<pdfrwt beam="2">  1        1 0.21095366E+00 0.90362408E+02</pdfrwt>
<pdfrwt beam="1">  1       -1 0.22903498E-03 0.90362408E+02</pdfrwt>
<totfact> 0.12092681E+05</totfact>
</mgrwt>
</event>
<event>
 7    1  0.5288488E-009  0.9099225E+02  0.7818608E-02  0.1300466E+00
         -1   -1    0    0    0  501 -0.00000000000E+00  0.00000000000E+00  0.26169710706E+01  0.26169759238E+01  0.50400000000E-02 0. -1.
          1   -1    0    0  501    0  0.00000000000E+00 -0.00000000000E+00 -0.79095079620E+03  0.79095079621E+03  0.50400000000E-02 0.  1.
         23    2    1    2    0    0  0.00000000000E+00 -0.17763568394E-14 -0.78833382512E+03  0.79356777214E+03  0.90992247669E+02 0.  0.
    9000005    2    3    3    0    0  0.15003473026E+02 -0.92742520552E+01 -0.75910777811E+03  0.75943160689E+03  0.13439895491E+02 0.  0.
         22    1    3    3    0    0 -0.15003473026E+02  0.92742520552E+01 -0.29226047012E+02  0.34136165250E+02  0.00000000000E+00 0. -1.
         22    1    4    4    0    0 -0.31039338736E+00  0.20638981674E+01 -0.17646479360E+03  0.17647713563E+03  0.00000000000E+00 0. -1.
         22    1    4    4    0    0  0.15313866414E+02 -0.11338150223E+02 -0.58264298452E+03  0.58295447126E+03  0.00000000000E+00 0. -1.
<mgrwt>
<rscale>  0 0.90992248E+02</rscale>
<asrwt>0</asrwt>
<pdfrwt beam="2">  1        1 0.12168455E+00 0.90992248E+02</pdfrwt>
<pdfrwt beam="1">  1       -1 0.40261194E-03 0.90992248E+02</pdfrwt>
<totfact> 0.14219293E+05</totfact>
</mgrwt>
</event>
<event>
 7    1  0.3565607E-009  0.1125413E+03  0.7818608E-02  0.1255935E+00
          1   -1    0    0  501    0  0.00000000000E+00  0.00000000000E+00  0.22534414005E+03  0.22534414011E+03  0.50400000000E-02 0. -1.
         -1   -1    0    0    0  501 -0.00000000000E+00 -0.00000000000E+00 -0.14051328134E+02  0.14051329038E+02  0.50400000000E-02 0.  1.
         23    2    1    2    0    0  0.71054273576E-14  0.00000000000E+00  0.21129281192E+03  0.23939546915E+03  0.11254127367E+03 0.  0.
    9000005    2    3    3    0    0 -0.34367468835E+02  0.37359614401E+02  0.58069238948E+02  0.77981941163E+02  0.11501431786E+02 0.  0.
         22    1    3    3    0    0  0.34367468835E+02 -0.37359614401E+02  0.15322357297E+03  0.16141352799E+03  0.00000000000E+00 0.  1.
         22    1    4    4    0    0  0.40717061227E+00  0.33177827948E+01  0.45578034431E+01  0.56521715125E+01  0.00000000000E+00 0. -1.
         22    1    4    4    0    0 -0.34774639447E+02  0.34041831606E+02  0.53511435505E+02  0.72329769650E+02  0.00000000000E+00 0. -1.
<mgrwt>
<rscale>  0 0.11254127E+03</rscale>
<asrwt>0</asrwt>
<pdfrwt beam="1">  1        1 0.34668331E-01 0.11254127E+03</pdfrwt>
<pdfrwt beam="2">  1       -1 0.21617427E-02 0.11254127E+03</pdfrwt>
<totfact> 0.68526480E+04</totfact>
</mgrwt>
</event>
<event>
 7    1  0.3565607E-009  0.9141737E+02  0.7818608E-02  0.1299455E+00
         -1   -1    0    0    0  501 -0.00000000000E+00  0.00000000000E+00  0.12088671944E+02  0.12088672995E+02  0.50400000000E-02 0.  1.
          1   -1    0    0  501    0  0.00000000000E+00 -0.00000000000E+00 -0.17282988427E+03  0.17282988435E+03  0.50400000000E-02 0. -1.
         23    2    1    2    0    0  0.35527136788E-14  0.00000000000E+00 -0.16074121233E+03  0.18491855734E+03  0.91417369839E+02 0.  0.
    9000005    2    3    3    0    0  0.26150524368E+02 -0.35888383556E+02 -0.96233211542E+02  0.10660439410E+03  0.11482153032E+02 0.  0.
         22    1    3    3    0    0 -0.26150524368E+02  0.35888383556E+02 -0.64508000788E+02  0.78314163245E+02  0.00000000000E+00 0.  1.
         22    1    4    4    0    0  0.40241776946E+01 -0.11897415473E+02 -0.19202361445E+02  0.22945003511E+02  0.00000000000E+00 0. -1.
         22    1    4    4    0    0  0.22126346674E+02 -0.23990968084E+02 -0.77030850097E+02  0.83659390587E+02  0.00000000000E+00 0. -1.
<mgrwt>
<rscale>  0 0.91417370E+02</rscale>
<asrwt>0</asrwt>
<pdfrwt beam="2">  1        1 0.26589211E-01 0.91417370E+02</pdfrwt>
<pdfrwt beam="1">  1       -1 0.18597959E-02 0.91417370E+02</pdfrwt>
<totfact> 0.11431973E+05</totfact>
</mgrwt>
</event>
<event>
 7    1  0.3565607E-009  0.9102429E+02  0.7818608E-02  0.1300390E+00
         -1   -1    0    0    0  501 -0.00000000000E+00  0.00000000000E+00  0.93958470700E+02  0.93958470835E+02  0.50400000000E-02 0.  1.
          1   -1    0    0  501    0  0.00000000000E+00 -0.00000000000E+00 -0.22045435440E+02  0.22045436016E+02  0.50400000000E-02 0. -1.
         23    2    1    2    0    0  0.00000000000E+00  0.35527136788E-14  0.71913035260E+02  0.11600390685E+03  0.91024292167E+02 0.  0.
    9000005    2    3    3    0    0 -0.21241043971E+02 -0.30895311029E+02  0.66934598211E+02  0.78182127041E+02  0.15049995297E+02 0.  0.
         22    1    3    3    0    0  0.21241043971E+02  0.30895311029E+02  0.49784370486E+01  0.37821779810E+02  0.00000000000E+00 0. -1.
         22    1    4    4    0    0  0.21084814180E+01 -0.28126285298E+01  0.93888157435E+01  0.10025289732E+02  0.00000000000E+00 0.  1.
         22    1    4    4    0    0 -0.23349525389E+02 -0.28082682500E+02  0.57545782468E+02  0.68156837310E+02  0.00000000000E+00 0.  1.
<mgrwt>
<rscale>  0 0.91024292E+02</rscale>
<asrwt>0</asrwt>
<pdfrwt beam="2">  1        1 0.33916054E-02 0.91024292E+02</pdfrwt>
<pdfrwt beam="1">  1       -1 0.14455150E-01 0.91024292E+02</pdfrwt>
<totfact> 0.82660883E+04</totfact>
</mgrwt>
</event>
<event>
 7    1  0.3565607E-009  0.9818725E+02  0.7818608E-02  0.1284155E+00
         -1   -1    0    0    0  501 -0.00000000000E+00  0.00000000000E+00  0.44272095995E+02  0.44272096282E+02  0.50400000000E-02 0.  1.
          1   -1    0    0  501    0  0.00000000000E+00 -0.00000000000E+00 -0.54440249349E+02  0.54440249583E+02  0.50400000000E-02 0. -1.
         23    2    1    2    0    0  0.00000000000E+00  0.00000000000E+00 -0.10168153354E+02  0.98712345865E+02  0.98187249088E+02 0.  0.
    9000005    2    3    3    0    0 -0.81799160938E+01  0.19999486361E+02  0.37832690370E+02  0.46072328005E+02  0.14981871218E+02 0.  0.
         22    1    3    3    0    0  0.81799160938E+01 -0.19999486361E+02 -0.48000843724E+02  0.52640017859E+02  0.00000000000E+00 0. -1.
         22    1    4    4    0    0 -0.38253741493E+01 -0.16805893273E+01  0.57991620764E+01  0.71475974045E+01  0.00000000000E+00 0.  1.
         22    1    4    4    0    0 -0.43545419445E+01  0.21680075688E+02  0.32033528293E+02  0.38924730601E+02  0.00000000000E+00 0.  1.
<mgrwt>
<rscale>  0 0.98187249E+02</rscale>
<asrwt>0</asrwt>
<pdfrwt beam="2">  1        1 0.83754230E-02 0.98187249E+02</pdfrwt>
<pdfrwt beam="1">  1       -1 0.68110917E-02 0.98187249E+02</pdfrwt>
<totfact> 0.77161213E+04</totfact>
</mgrwt>
</event>
<event>
 7    1  0.3565607E-009  0.9356822E+02  0.7818608E-02  0.1294434E+00
          1   -1    0    0  501    0  0.00000000000E+00  0.00000000000E+00  0.10681169287E+03  0.10681169299E+03  0.50400000000E-02 0. -1.
         -1   -1    0    0    0  501 -0.00000000000E+00 -0.00000000000E+00 -0.20491696191E+02  0.20491696811E+02  0.50400000000E-02 0.  1.
         23    2    1    2    0    0  0.88817841970E-15  0.00000000000E+00  0.86319996684E+02  0.12730338980E+03  0.93568216977E+02 0.  0.
    9000005    2    3    3    0    0  0.78626459754E+01  0.44619720155E+02  0.56683452561E+02  0.73164075291E+02  0.93395658593E+01 0.  0.
         22    1    3    3    0    0 -0.78626459754E+01 -0.44619720155E+02  0.29636544123E+02  0.54139314514E+02  0.00000000000E+00 0.  1.
         22    1    4    4    0    0 -0.21279920873E+01  0.73950055926E+01  0.10304398391E+02  0.12860602017E+02  0.00000000000E+00 0. -1.
         22    1    4    4    0    0  0.99906380628E+01  0.37224714563E+02  0.46379054170E+02  0.60303473274E+02  0.00000000000E+00 0. -1.
<mgrwt>
<rscale>  0 0.93568217E+02</rscale>
<asrwt>0</asrwt>
<pdfrwt beam="1">  1        1 0.16432568E-01 0.93568217E+02</pdfrwt>
<pdfrwt beam="2">  1       -1 0.31525687E-02 0.93568217E+02</pdfrwt>
<totfact> 0.98410274E+04</totfact>
</mgrwt>
</event>
<event>
 7    1  0.3565607E-009  0.8815349E+02  0.7818608E-02  0.1307386E+00
          1   -1    0    0  501    0  0.00000000000E+00  0.00000000000E+00  0.98378422574E+03  0.98378422575E+03  0.50400000000E-02 0. -1.
         -1   -1    0    0    0  501 -0.00000000000E+00 -0.00000000000E+00 -0.19747789314E+01  0.19747853629E+01  0.50400000000E-02 0.  1.
         23    2    1    2    0    0  0.00000000000E+00  0.00000000000E+00  0.98180944681E+03  0.98575901111E+03  0.88153492009E+02 0.  0.
    9000005    2    3    3    0    0  0.10294907056E+02  0.30029185841E+02  0.83177709118E+03  0.83240502568E+03  0.61041176014E+01 0.  0.
         22    1    3    3    0    0 -0.10294907056E+02 -0.30029185841E+02  0.15003235563E+03  0.15335398543E+03  0.00000000000E+00 0.  1.
         22    1    4    4    0    0 -0.57679493683E+00  0.38677805095E+00  0.11924851303E+02  0.11945056227E+02  0.00000000000E+00 0.  1.
         22    1    4    4    0    0  0.10871701993E+02  0.29642407790E+02  0.81985223988E+03  0.82045996945E+03  0.00000000000E+00 0.  1.
<mgrwt>
<rscale>  0 0.88153492E+02</rscale>
<asrwt>0</asrwt>
<pdfrwt beam="1">  1        1 0.15135144E+00 0.88153492E+02</pdfrwt>
<pdfrwt beam="2">  1       -1 0.30381260E-03 0.88153492E+02</pdfrwt>
<totfact> 0.14930464E+05</totfact>
</mgrwt>
</event>
<event>
 7    1  0.3634011E-009  0.9557025E+02  0.7818608E-02  0.1289897E+00
          1   -1    0    0  501    0  0.00000000000E+00  0.00000000000E+00  0.87212370670E+01  0.87212385233E+01  0.50400000000E-02 0. -1.
         -1   -1    0    0    0  501 -0.00000000000E+00 -0.00000000000E+00 -0.26182269938E+03  0.26182269943E+03  0.50400000000E-02 0.  1.
         23    2    1    2    0    0  0.00000000000E+00  0.00000000000E+00 -0.25310146231E+03  0.27054393795E+03  0.95570247135E+02 0.  0.
    9000005    2    3    3    0    0  0.12979317230E+02 -0.21390620589E+02 -0.24097456141E+03  0.24273956688E+03  0.15090949629E+02 0.  0.
         22    1    3    3    0    0 -0.12979317230E+02  0.21390620589E+02 -0.12126900907E+02  0.27804371069E+02  0.00000000000E+00 0. -1.
         22    1    4    4    0    0  0.11197108161E+02 -0.80679667799E+01 -0.77989711967E+02  0.79201404608E+02  0.00000000000E+00 0.  1.
         22    1    4    4    0    0  0.17822090692E+01 -0.13322653809E+02 -0.16298484944E+03  0.16353816227E+03  0.00000000000E+00 0.  1.
<mgrwt>
<rscale>  0 0.95570247E+02</rscale>
<asrwt>0</asrwt>
<pdfrwt beam="1">  1        1 0.13417291E-02 0.95570247E+02</pdfrwt>
<pdfrwt beam="2">  1       -1 0.40280409E-01 0.95570247E+02</pdfrwt>
<totfact> 0.56350865E+04</totfact>
</mgrwt>
</event>
<event>
 7    1  0.3565607E-009  0.8824144E+02  0.7818608E-02  0.1307167E+00
          1   -1    0    0  501    0  0.00000000000E+00  0.00000000000E+00  0.11341963058E+03  0.11341963069E+03  0.50400000000E-02 0. -1.
         -1   -1    0    0    0  501 -0.00000000000E+00 -0.00000000000E+00 -0.17163147886E+02  0.17163148626E+02  0.50400000000E-02 0.  1.
         23    2    1    2    0    0  0.00000000000E+00  0.00000000000E+00  0.96256482692E+02  0.13058277932E+03  0.88241440343E+02 0.  0.
    9000005    2    3    3    0    0 -0.37934683109E+02 -0.17976252279E+02  0.66642192664E+02  0.79209712419E+02  0.84149194807E+01 0.  0.
         22    1    3    3    0    0  0.37934683109E+02  0.17976252279E+02  0.29614290028E+02  0.51373066897E+02  0.00000000000E+00 0.  1.
         22    1    4    4    0    0 -0.22356800513E+02 -0.10180526622E+02  0.46418902914E+02  0.52518417714E+02  0.00000000000E+00 0. -1.
         22    1    4    4    0    0 -0.15577882596E+02 -0.77957256575E+01  0.20223289750E+02  0.26691294705E+02  0.00000000000E+00 0. -1.
<mgrwt>
<rscale>  0 0.88241440E+02</rscale>
<asrwt>0</asrwt>
<pdfrwt beam="1">  1        1 0.17449174E-01 0.88241440E+02</pdfrwt>
<pdfrwt beam="2">  1       -1 0.26404843E-02 0.88241440E+02</pdfrwt>
<totfact> 0.11658395E+05</totfact>
</mgrwt>
</event>
<event>
 7    1  0.3565607E-009  0.8804450E+02  0.7818608E-02  0.1307658E+00
          1   -1    0    0  501    0  0.00000000000E+00  0.00000000000E+00  0.14187939521E+03  0.14187939530E+03  0.50400000000E-02 0. -1.
         -1   -1    0    0    0  501 -0.00000000000E+00 -0.00000000000E+00 -0.13659195473E+02  0.13659196403E+02  0.50400000000E-02 0.  1.
         23    2    1    2    0    0  0.00000000000E+00  0.00000000000E+00  0.12822019974E+03  0.15553859171E+03  0.88044499479E+02 0.  0.
    9000005    2    3    3    0    0  0.26131294364E+02  0.10373828678E+02  0.83496685943E+01  0.32415055760E+02  0.13804274979E+02 0.  0.
         22    1    3    3    0    0 -0.26131294364E+02 -0.10373828678E+02  0.11987053115E+03  0.12312353595E+03  0.00000000000E+00 0. -1.
         22    1    4    4    0    0  0.17141994831E+02  0.61556565449E+01  0.12026884136E+02  0.21826269409E+02  0.00000000000E+00 0. -1.
         22    1    4    4    0    0  0.89892995334E+01  0.42181721335E+01 -0.36772155419E+01  0.10588786351E+02  0.00000000000E+00 0. -1.
<mgrwt>
<rscale>  0 0.88044499E+02</rscale>
<asrwt>0</asrwt>
<pdfrwt beam="1">  1        1 0.21827599E-01 0.88044499E+02</pdfrwt>
<pdfrwt beam="2">  1       -1 0.21014148E-02 0.88044499E+02</pdfrwt>
<totfact> 0.12195803E+05</totfact>
</mgrwt>
</event>
<event>
 7    1  0.3565607E-009  0.1166986E+03  0.7818608E-02  0.1248645E+00
         -1   -1    0    0    0  501 -0.00000000000E+00  0.00000000000E+00  0.51034829792E+01  0.51034854679E+01  0.50400000000E-02 0.  1.
          1   -1    0    0  501    0  0.00000000000E+00 -0.00000000000E+00 -0.66712072932E+03  0.66712072934E+03  0.50400000000E-02 0. -1.
         23    2    1    2    0    0  0.00000000000E+00  0.00000000000E+00 -0.66201724634E+03  0.67222421481E+03  0.11669858834E+03 0.  0.
    9000005    2    3    3    0    0 -0.32788631988E+02 -0.15796902980E+02 -0.59273378328E+03  0.59396289112E+03  0.11573316531E+02 0.  0.
         22    1    3    3    0    0  0.32788631988E+02  0.15796902980E+02 -0.69283463059E+02  0.78261323685E+02  0.00000000000E+00 0.  1.
         22    1    4    4    0    0 -0.29401053754E+01 -0.16985679546E+01 -0.13395797244E+03  0.13400099900E+03  0.00000000000E+00 0.  1.
         22    1    4    4    0    0 -0.29848526613E+02 -0.14098335026E+02 -0.45877581084E+03  0.45996189212E+03  0.00000000000E+00 0.  1.
<mgrwt>
<rscale>  0 0.11669859E+03</rscale>
<asrwt>0</asrwt>
<pdfrwt beam="2">  1        1 0.10263389E+00 0.11669859E+03</pdfrwt>
<pdfrwt beam="1">  1       -1 0.78515195E-03 0.11669859E+03</pdfrwt>
<totfact> 0.73423697E+04</totfact>
</mgrwt>
</event>
<event>
 7    1  0.3565607E-009  0.9194866E+02  0.7818608E-02  0.1298200E+00
          1   -1    0    0  501    0  0.00000000000E+00  0.00000000000E+00  0.55048546161E+03  0.55048546163E+03  0.50400000000E-02 0. -1.
         -1   -1    0    0    0  501 -0.00000000000E+00 -0.00000000000E+00 -0.38395892105E+01  0.38395925184E+01  0.50400000000E-02 0.  1.
         23    2    1    2    0    0  0.00000000000E+00  0.00000000000E+00  0.54664587240E+03  0.55432505415E+03  0.91948658764E+02 0.  0.
    9000005    2    3    3    0    0  0.51823392326E+01  0.37757764857E+02  0.42762352981E+03  0.42934976266E+03  0.51797688333E+01 0.  0.
         22    1    3    3    0    0 -0.51823392326E+01 -0.37757764857E+02  0.11902234259E+03  0.12497529149E+03  0.00000000000E+00 0.  1.
         22    1    4    4    0    0  0.87928654200E+00  0.64261853522E+00  0.13777179747E+02  0.13820158653E+02  0.00000000000E+00 0.  1.
         22    1    4    4    0    0  0.43030526906E+01  0.37115146322E+02  0.41384635006E+03  0.41552960401E+03  0.00000000000E+00 0.  1.
<mgrwt>
<rscale>  0 0.91948659E+02</rscale>
<asrwt>0</asrwt>
<pdfrwt beam="1">  1        1 0.84689996E-01 0.91948659E+02</pdfrwt>
<pdfrwt beam="2">  1       -1 0.59070681E-03 0.91948659E+02</pdfrwt>
<totfact> 0.13756420E+05</totfact>
</mgrwt>
</event>
<event>
 7    1  0.3565607E-009  0.9018694E+02  0.7818608E-02  0.1302400E+00
          1   -1    0    0  501    0  0.00000000000E+00  0.00000000000E+00  0.13502191511E+03  0.13502191521E+03  0.50400000000E-02 0. -1.
         -1   -1    0    0    0  501 -0.00000000000E+00 -0.00000000000E+00 -0.15059934104E+02  0.15059934947E+02  0.50400000000E-02 0.  1.
         23    2    1    2    0    0 -0.35527136788E-14  0.00000000000E+00  0.11996198101E+03  0.15008185015E+03  0.90186943944E+02 0.  0.
    9000005    2    3    3    0    0  0.17394741037E+02 -0.31506297902E+01  0.12877046837E+03  0.13033107970E+03  0.95840142692E+01 0.  0.
         22    1    3    3    0    0 -0.17394741037E+02  0.31506297902E+01 -0.88084873584E+01  0.19750770449E+02  0.00000000000E+00 0.  1.
         22    1    4    4    0    0 -0.16007459982E+00 -0.54017193856E+00  0.28266100655E+02  0.28271714767E+02  0.00000000000E+00 0. -1.
         22    1    4    4    0    0  0.17554815636E+02 -0.26104578516E+01  0.10050436771E+03  0.10205936494E+03  0.00000000000E+00 0. -1.
<mgrwt>
<rscale>  0 0.90186944E+02</rscale>
<asrwt>0</asrwt>
<pdfrwt beam="1">  1        1 0.20772602E-01 0.90186944E+02</pdfrwt>
<pdfrwt beam="2">  1       -1 0.23169130E-02 0.90186944E+02</pdfrwt>
<totfact> 0.11330132E+05</totfact>
</mgrwt>
</event>
<event>
 7    1  0.3565607E-009  0.9283755E+02  0.7818608E-02  0.1296122E+00
          1   -1    0    0  501    0  0.00000000000E+00  0.00000000000E+00  0.15298736852E+02  0.15298737683E+02  0.50400000000E-02 0. -1.
         -1   -1    0    0    0  501 -0.00000000000E+00 -0.00000000000E+00 -0.14084185987E+03  0.14084185996E+03  0.50400000000E-02 0.  1.
         23    2    1    2    0    0  0.00000000000E+00  0.00000000000E+00 -0.12554312302E+03  0.15614059765E+03  0.92837548952E+02 0.  0.
    9000005    2    3    3    0    0  0.19717818325E+02  0.41319488079E+02 -0.69726763759E+02  0.83949473428E+02  0.94657302852E+01 0.  0.
         22    1    3    3    0    0 -0.19717818325E+02 -0.41319488079E+02 -0.55816359261E+02  0.72191124217E+02  0.00000000000E+00 0.  1.
         22    1    4    4    0    0  0.18089680660E+02  0.32778082341E+02 -0.61378216430E+02  0.71895234060E+02  0.00000000000E+00 0.  1.
         22    1    4    4    0    0  0.16281376653E+01  0.85414057380E+01 -0.83485473290E+01  0.12054239368E+02  0.00000000000E+00 0.  1.
<mgrwt>
<rscale>  0 0.92837549E+02</rscale>
<asrwt>0</asrwt>
<pdfrwt beam="1">  1        1 0.23536520E-02 0.92837549E+02</pdfrwt>
<pdfrwt beam="2">  1       -1 0.21667978E-01 0.92837549E+02</pdfrwt>
<totfact> 0.72403952E+04</totfact>
</mgrwt>
</event>
<event>
 7    1  0.3565607E-009  0.8128875E+02  0.7818608E-02  0.1325433E+00
          1   -1    0    0  501    0  0.00000000000E+00  0.00000000000E+00  0.43598753766E+03  0.43598753769E+03  0.50400000000E-02 0. -1.
         -1   -1    0    0    0  501 -0.00000000000E+00 -0.00000000000E+00 -0.37890175574E+01  0.37890209094E+01  0.50400000000E-02 0.  1.
         23    2    1    2    0    0  0.00000000000E+00  0.00000000000E+00  0.43219852011E+03  0.43977655860E+03  0.81288748999E+02 0.  0.
    9000005    2    3    3    0    0 -0.13381723515E+02 -0.20532555045E+02  0.38924419099E+03  0.39032222885E+03  0.15483726242E+02 0.  0.
         22    1    3    3    0    0  0.13381723515E+02  0.20532555045E+02  0.42954329119E+02  0.49454329750E+02  0.00000000000E+00 0.  1.
         22    1    4    4    0    0 -0.14760171857E+02 -0.16404428276E+02  0.36660124999E+03  0.36726481513E+03  0.00000000000E+00 0.  1.
         22    1    4    4    0    0  0.13784483415E+01 -0.41281267684E+01  0.22642940997E+02  0.23057413720E+02  0.00000000000E+00 0.  1.
<mgrwt>
<rscale>  0 0.81288749E+02</rscale>
<asrwt>0</asrwt>
<pdfrwt beam="1">  1        1 0.67074997E-01 0.81288749E+02</pdfrwt>
<pdfrwt beam="2">  1       -1 0.58292611E-03 0.81288749E+02</pdfrwt>
<totfact> 0.18506522E+05</totfact>
</mgrwt>
</event>
<event>
 7    1  0.4425370E-009  0.9100350E+02  0.7818608E-02  0.1300440E+00
          1   -1    0    0  501    0  0.00000000000E+00  0.00000000000E+00  0.50503523214E+03  0.50503523217E+03  0.50400000000E-02 0. -1.
         -1   -1    0    0    0  501 -0.00000000000E+00 -0.00000000000E+00 -0.40995325253E+01  0.40995356234E+01  0.50400000000E-02 0.  1.
         23    2    1    2    0    0  0.17763568394E-14  0.00000000000E+00  0.50093569962E+03  0.50913476779E+03  0.91003497859E+02 0.  0.
    9000005    2    3    3    0    0  0.15640506875E+02 -0.33088556193E+02  0.39830525375E+03  0.40017382788E+03  0.12350682306E+02 0.  0.
         22    1    3    3    0    0 -0.15640506875E+02  0.33088556193E+02  0.10263044587E+03  0.10896093991E+03  0.00000000000E+00 0.  1.
         22    1    4    4    0    0  0.13599612940E+02 -0.14432044913E+02  0.19691440247E+03  0.19791037187E+03  0.00000000000E+00 0. -1.
         22    1    4    4    0    0  0.20408939353E+01 -0.18656511279E+02  0.20139085128E+03  0.20226345602E+03  0.00000000000E+00 0. -1.
<mgrwt>
<rscale>  0 0.91003498E+02</rscale>
<asrwt>0</asrwt>
<pdfrwt beam="1">  1        1 0.77697680E-01 0.91003498E+02</pdfrwt>
<pdfrwt beam="2">  1       -1 0.63069794E-03 0.91003498E+02</pdfrwt>
<totfact> 0.14013296E+05</totfact>
</mgrwt>
</event>
<event>
 7    1  0.3565607E-009  0.9010371E+02  0.7818608E-02  0.1302601E+00
          1   -1    0    0  501    0  0.00000000000E+00  0.00000000000E+00  0.14491092044E+03  0.14491092053E+03  0.50400000000E-02 0.  1.
         -1   -1    0    0    0  501 -0.00000000000E+00 -0.00000000000E+00 -0.14006325574E+02  0.14006326481E+02  0.50400000000E-02 0. -1.
         23    2    1    2    0    0  0.00000000000E+00  0.00000000000E+00  0.13090459487E+03  0.15891724701E+03  0.90103709357E+02 0.  0.
    9000005    2    3    3    0    0 -0.16496008352E+02 -0.36734346940E+02  0.34213939459E+02  0.54176551099E+02  0.11957194448E+02 0.  0.
         22    1    3    3    0    0  0.16496008352E+02  0.36734346940E+02  0.96690655407E+02  0.10474069591E+03  0.00000000000E+00 0.  1.
         22    1    4    4    0    0 -0.10020015209E+02 -0.13409074933E+02  0.81939687989E+01  0.18637197214E+02  0.00000000000E+00 0. -1.
         22    1    4    4    0    0 -0.64759931430E+01 -0.23325272007E+02  0.26019970660E+02  0.35539353885E+02  0.00000000000E+00 0. -1.
<mgrwt>
<rscale>  0 0.90103709E+02</rscale>
<asrwt>0</asrwt>
<pdfrwt beam="1">  1        1 0.22293990E-01 0.90103709E+02</pdfrwt>
<pdfrwt beam="2">  1       -1 0.21548192E-02 0.90103709E+02</pdfrwt>
<totfact> 0.11504043E+05</totfact>
</mgrwt>
</event>
<event>
 7    1  0.3565607E-009  0.9008301E+02  0.7818608E-02  0.1302651E+00
          1   -1    0    0  501    0  0.00000000000E+00  0.00000000000E+00  0.56084945549E+01  0.56084968194E+01  0.50400000000E-02 0. -1.
         -1   -1    0    0    0  501 -0.00000000000E+00 -0.00000000000E+00 -0.36172575414E+03  0.36172575417E+03  0.50400000000E-02 0.  1.
         23    2    1    2    0    0  0.00000000000E+00  0.00000000000E+00 -0.35611725958E+03  0.36733425099E+03  0.90083013822E+02 0.  0.
    9000005    2    3    3    0    0 -0.28279508866E+02 -0.34029887353E+02 -0.18985442331E+03  0.19528456462E+03  0.11558342180E+02 0.  0.
         22    1    3    3    0    0  0.28279508866E+02  0.34029887353E+02 -0.16626283628E+03  0.17204968637E+03  0.00000000000E+00 0. -1.
         22    1    4    4    0    0 -0.14286191394E+02 -0.93437609798E+01 -0.82142772408E+02  0.83897772275E+02  0.00000000000E+00 0. -1.
         22    1    4    4    0    0 -0.13993317472E+02 -0.24686126373E+02 -0.10771165090E+03  0.11138679235E+03  0.00000000000E+00 0. -1.
<mgrwt>
<rscale>  0 0.90083014E+02</rscale>
<asrwt>0</asrwt>
<pdfrwt beam="1">  1        1 0.86284578E-03 0.90083014E+02</pdfrwt>
<pdfrwt beam="2">  1       -1 0.55650098E-01 0.90083014E+02</pdfrwt>
<totfact> 0.57737452E+04</totfact>
</mgrwt>
</event>
<event>
 7    1  0.3565607E-009  0.9043086E+02  0.7818608E-02  0.1301812E+00
         -1   -1    0    0    0  501 -0.00000000000E+00  0.00000000000E+00  0.32945002321E+02  0.32945002707E+02  0.50400000000E-02 0.  1.
          1   -1    0    0  501    0  0.00000000000E+00 -0.00000000000E+00 -0.62055997007E+02  0.62055997212E+02  0.50400000000E-02 0. -1.
         23    2    1    2    0    0  0.00000000000E+00  0.00000000000E+00 -0.29110994686E+02  0.95000999919E+02  0.90430857421E+02 0.  0.
    9000005    2    3    3    0    0 -0.22611435826E+02 -0.22378910492E+02 -0.48262763458E+02  0.57867687219E+02  0.26985593391E+01 0.  0.
         22    1    3    3    0    0  0.22611435826E+02  0.22378910492E+02  0.19151768773E+02  0.37133312700E+02  0.00000000000E+00 0.  1.
         22    1    4    4    0    0 -0.13453735525E+02 -0.15129572538E+02 -0.30313865529E+02  0.36453222191E+02  0.00000000000E+00 0. -1.
         22    1    4    4    0    0 -0.91577003016E+01 -0.72493379540E+01 -0.17948897929E+02  0.21414465029E+02  0.00000000000E+00 0. -1.
<mgrwt>
<rscale>  0 0.90430857E+02</rscale>
<asrwt>0</asrwt>
<pdfrwt beam="2">  1        1 0.95470765E-02 0.90430857E+02</pdfrwt>
<pdfrwt beam="1">  1       -1 0.50684619E-02 0.90430857E+02</pdfrwt>
<totfact> 0.99091722E+04</totfact>
</mgrwt>
</event>
<event>
 7    1  0.3565607E-009  0.8972181E+02  0.7818608E-02  0.1303527E+00
         -1   -1    0    0    0  501 -0.00000000000E+00  0.00000000000E+00  0.96770809827E+01  0.96770822951E+01  0.50400000000E-02 0.  1.
          1   -1    0    0  501    0  0.00000000000E+00 -0.00000000000E+00 -0.20796566871E+03  0.20796566877E+03  0.50400000000E-02 0. -1.
         23    2    1    2    0    0  0.00000000000E+00  0.00000000000E+00 -0.19828858773E+03  0.21764275107E+03  0.89721809326E+02 0.  0.
    9000005    2    3    3    0    0 -0.42027414129E+02  0.11776195004E+02 -0.91707403191E+02  0.10247100451E+03  0.13604288241E+02 0.  0.
         22    1    3    3    0    0  0.42027414129E+02 -0.11776195004E+02 -0.10658118454E+03  0.11517174655E+03  0.00000000000E+00 0. -1.
         22    1    4    4    0    0 -0.96797022352E+01  0.72188604183E+01 -0.35036825325E+02  0.37059245944E+02  0.00000000000E+00 0.  1.
         22    1    4    4    0    0 -0.32347711894E+02  0.45573345860E+01 -0.56670577867E+02  0.65411758569E+02  0.00000000000E+00 0.  1.
<mgrwt>
<rscale>  0 0.89721809E+02</rscale>
<asrwt>0</asrwt>
<pdfrwt beam="2">  1        1 0.31994715E-01 0.89721809E+02</pdfrwt>
<pdfrwt beam="1">  1       -1 0.14887819E-02 0.89721809E+02</pdfrwt>
<totfact> 0.12455606E+05</totfact>
</mgrwt>
</event>
<event>
 7    1  0.3565607E-009  0.8577347E+02  0.7818608E-02  0.1313422E+00
          1   -1    0    0  501    0  0.00000000000E+00  0.00000000000E+00  0.53655617666E+03  0.53655617668E+03  0.50400000000E-02 0. -1.
         -1   -1    0    0    0  501 -0.00000000000E+00 -0.00000000000E+00 -0.34279187124E+01  0.34279224175E+01  0.50400000000E-02 0.  1.
         23    2    1    2    0    0 -0.22204460493E-15  0.00000000000E+00  0.53312825794E+03  0.53998409910E+03  0.85773468274E+02 0.  0.
    9000005    2    3    3    0    0  0.93326054803E+00 -0.20040491038E+02  0.50468678449E+03  0.50517878817E+03  0.97141816982E+01 0.  0.
         22    1    3    3    0    0 -0.93326054803E+00  0.20040491038E+02  0.28441473458E+02  0.34805310928E+02  0.00000000000E+00 0.  1.
         22    1    4    4    0    0  0.21562836918E+01 -0.13652732566E+02  0.22995100657E+03  0.23036603935E+03  0.00000000000E+00 0.  1.
         22    1    4    4    0    0 -0.12230231438E+01 -0.63877584721E+01  0.27473577792E+03  0.27481274882E+03  0.00000000000E+00 0.  1.
<mgrwt>
<rscale>  0 0.85773468E+02</rscale>
<asrwt>0</asrwt>
<pdfrwt beam="1">  1        1 0.82547118E-01 0.85773468E+02</pdfrwt>
<pdfrwt beam="2">  1       -1 0.52737231E-03 0.85773468E+02</pdfrwt>
<totfact> 0.16489288E+05</totfact>
</mgrwt>
</event>
<event>
 7    1  0.3565607E-009  0.9107728E+02  0.7818608E-02  0.1300264E+00
          1   -1    0    0  501    0  0.00000000000E+00  0.00000000000E+00  0.33602042995E+03  0.33602042999E+03  0.50400000000E-02 0. -1.
         -1   -1    0    0    0  501 -0.00000000000E+00 -0.00000000000E+00 -0.61715519515E+01  0.61715540095E+01  0.50400000000E-02 0.  1.
         23    2    1    2    0    0  0.00000000000E+00  0.00000000000E+00  0.32984887800E+03  0.34219198400E+03  0.91077283640E+02 0.  0.
    9000005    2    3    3    0    0  0.42844683499E+02 -0.50888380028E+01  0.13295230483E+03  0.14062357452E+03  0.15398414628E+02 0.  0.
         22    1    3    3    0    0 -0.42844683499E+02  0.50888380028E+01  0.19689657316E+03  0.20156840948E+03  0.00000000000E+00 0. -1.
         22    1    4    4    0    0  0.26204112053E+02  0.24622049964E+01  0.61985228604E+02  0.67341565968E+02  0.00000000000E+00 0. -1.
         22    1    4    4    0    0  0.16640571446E+02 -0.75510429993E+01  0.70967076230E+02  0.73282008549E+02  0.00000000000E+00 0. -1.
<mgrwt>
<rscale>  0 0.91077284E+02</rscale>
<asrwt>0</asrwt>
<pdfrwt beam="1">  1        1 0.51695464E-01 0.91077284E+02</pdfrwt>
<pdfrwt beam="2">  1       -1 0.94946945E-03 0.91077284E+02</pdfrwt>
<totfact> 0.13124706E+05</totfact>
</mgrwt>
</event>
<event>
 7    1  0.3565607E-009  0.1007350E+03  0.7818608E-02  0.1278758E+00
          1   -1    0    0  501    0  0.00000000000E+00  0.00000000000E+00  0.48909637037E+03  0.48909637040E+03  0.50400000000E-02 0. -1.
         -1   -1    0    0    0  501 -0.00000000000E+00 -0.00000000000E+00 -0.51868758264E+01  0.51868782750E+01  0.50400000000E-02 0.  1.
         23    2    1    2    0    0  0.00000000000E+00  0.00000000000E+00  0.48390949455E+03  0.49428324867E+03  0.10073495425E+03 0.  0.
    9000005    2    3    3    0    0 -0.37341833751E+01 -0.35985677266E+02  0.41339600832E+03  0.41503007944E+03  0.66928357869E+01 0.  0.
         22    1    3    3    0    0  0.37341833751E+01  0.35985677266E+02  0.70513486221E+02  0.79253169229E+02  0.00000000000E+00 0.  1.
         22    1    4    4    0    0 -0.13319715304E+00 -0.23107180696E+00  0.44761818331E+00  0.52105441135E+00  0.00000000000E+00 0.  1.
         22    1    4    4    0    0 -0.36009862221E+01 -0.35754605459E+02  0.41294839014E+03  0.41450902503E+03  0.00000000000E+00 0.  1.
<mgrwt>
<rscale>  0 0.10073495E+03</rscale>
<asrwt>0</asrwt>
<pdfrwt beam="1">  1        1 0.75245590E-01 0.10073495E+03</pdfrwt>
<pdfrwt beam="2">  1       -1 0.79798114E-03 0.10073495E+03</pdfrwt>
<totfact> 0.10649725E+05</totfact>
</mgrwt>
</event>
<event>
 7    1  0.3565607E-009  0.8956472E+02  0.7818608E-02  0.1303909E+00
         -1   -1    0    0    0  501 -0.00000000000E+00  0.00000000000E+00  0.68798415931E+01  0.68798434392E+01  0.50400000000E-02 0.  1.
          1   -1    0    0  501    0  0.00000000000E+00 -0.00000000000E+00 -0.29149789099E+03  0.29149789104E+03  0.50400000000E-02 0. -1.
         23    2    1    2    0    0 -0.35527136788E-14 -0.17763568394E-14 -0.28461804940E+03  0.29837773447E+03  0.89564716193E+02 0.  0.
    9000005    2    3    3    0    0  0.22406984044E+02  0.15609981894E+02 -0.26015861325E+03  0.26171701318E+03  0.82186662624E+01 0.  0.
         22    1    3    3    0    0 -0.22406984044E+02 -0.15609981894E+02 -0.24459436153E+02  0.36660721291E+02  0.00000000000E+00 0.  1.
         22    1    4    4    0    0  0.13623685710E+02  0.46463026952E+01 -0.12210886489E+03  0.12295433228E+03  0.00000000000E+00 0.  1.
         22    1    4    4    0    0  0.87832983337E+01  0.10963679198E+02 -0.13804974835E+03  0.13876268090E+03  0.00000000000E+00 0.  1.
<mgrwt>
<rscale>  0 0.89564716E+02</rscale>
<asrwt>0</asrwt>
<pdfrwt beam="2">  1        1 0.44845820E-01 0.89564716E+02</pdfrwt>
<pdfrwt beam="1">  1       -1 0.10584375E-02 0.89564716E+02</pdfrwt>
<totfact> 0.13361510E+05</totfact>
</mgrwt>
</event>
<event>
 7    1  0.3565607E-009  0.9233004E+02  0.7818608E-02  0.1297305E+00
          1   -1    0    0  501    0  0.00000000000E+00  0.00000000000E+00  0.28329840484E+03  0.28329840489E+03  0.50400000000E-02 0. -1.
         -1   -1    0    0    0  501 -0.00000000000E+00 -0.00000000000E+00 -0.75228414096E+01  0.75228430979E+01  0.50400000000E-02 0.  1.
         23    2    1    2    0    0  0.00000000000E+00  0.00000000000E+00  0.27577556343E+03  0.29082124798E+03  0.92330043284E+02 0.  0.
    9000005    2    3    3    0    0 -0.39512671274E+02 -0.11314053081E+02  0.19904029175E+03  0.20377206126E+03  0.14722643247E+02 0.  0.
         22    1    3    3    0    0  0.39512671274E+02  0.11314053081E+02  0.76735271684E+02  0.87049186720E+02  0.00000000000E+00 0.  1.
         22    1    4    4    0    0 -0.26992626335E+02 -0.12334633762E+01  0.13994441468E+03  0.14252916371E+03  0.00000000000E+00 0.  1.
         22    1    4    4    0    0 -0.12520044939E+02 -0.10080589705E+02  0.59095877073E+02  0.61242897557E+02  0.00000000000E+00 0.  1.
<mgrwt>
<rscale>  0 0.92330043E+02</rscale>
<asrwt>0</asrwt>
<pdfrwt beam="1">  1        1 0.43584365E-01 0.92330043E+02</pdfrwt>
<pdfrwt beam="2">  1       -1 0.11573605E-02 0.92330043E+02</pdfrwt>
<totfact> 0.12253798E+05</totfact>
</mgrwt>
</event>
<event>
 7    1  0.3565607E-009  0.9160853E+02  0.7818608E-02  0.1299003E+00
          1   -1    0    0  501    0  0.00000000000E+00  0.00000000000E+00  0.39659039508E+03  0.39659039511E+03  0.50400000000E-02 0. -1.
         -1   -1    0    0    0  501 -0.00000000000E+00 -0.00000000000E+00 -0.52901688501E+01  0.52901712509E+01  0.50400000000E-02 0.  1.
         23    2    1    2    0    0  0.35527136788E-14  0.17763568394E-14  0.39130022623E+03  0.40188056636E+03  0.91608528929E+02 0.  0.
    9000005    2    3    3    0    0  0.22946098715E+02  0.83221821643E+01  0.36449241841E+03  0.36562534988E+03  0.15211549303E+02 0.  0.
         22    1    3    3    0    0 -0.22946098715E+02 -0.83221821643E+01  0.26807807814E+02  0.36255216480E+02  0.00000000000E+00 0.  1.
         22    1    4    4    0    0 -0.15284972051E+01 -0.16484716302E+01  0.37082734354E+02  0.37150813579E+02  0.00000000000E+00 0. -1.
         22    1    4    4    0    0  0.24474595920E+02  0.99706537945E+01  0.32740968406E+03  0.32847453630E+03  0.00000000000E+00 0. -1.
<mgrwt>
<rscale>  0 0.91608529E+02</rscale>
<asrwt>0</asrwt>
<pdfrwt beam="1">  1        1 0.61013898E-01 0.91608529E+02</pdfrwt>
<pdfrwt beam="2">  1       -1 0.81387244E-03 0.91608529E+02</pdfrwt>
<totfact> 0.13302154E+05</totfact>
</mgrwt>
</event>
<event>
 7    1  0.3565607E-009  0.8959313E+02  0.7818608E-02  0.1303840E+00
          1   -1    0    0  501    0  0.00000000000E+00  0.00000000000E+00  0.64635935403E+03  0.64635935404E+03  0.50400000000E-02 0. -1.
         -1   -1    0    0    0  501 -0.00000000000E+00 -0.00000000000E+00 -0.31046678617E+01  0.31046719526E+01  0.50400000000E-02 0.  1.
         23    2    1    2    0    0  0.00000000000E+00  0.00000000000E+00  0.64325468616E+03  0.64946402600E+03  0.89593134746E+02 0.  0.
    9000005    2    3    3    0    0  0.20839987326E+02  0.20820673845E+02  0.56516723945E+03  0.56600472534E+03  0.89182416917E+01 0.  0.
         22    1    3    3    0    0 -0.20839987326E+02 -0.20820673845E+02  0.78087446714E+02  0.83459300653E+02  0.00000000000E+00 0.  1.
         22    1    4    4    0    0  0.13499158979E+02  0.17344865149E+02  0.45974478623E+03  0.46026985574E+03  0.00000000000E+00 0. -1.
         22    1    4    4    0    0  0.73408283469E+01  0.34758086955E+01  0.10542245322E+03  0.10573486960E+03  0.00000000000E+00 0. -1.
<mgrwt>
<rscale>  0 0.89593135E+02</rscale>
<asrwt>0</asrwt>
<pdfrwt beam="1">  1        1 0.99440035E-01 0.89593135E+02</pdfrwt>
<pdfrwt beam="2">  1       -1 0.47764088E-03 0.89593135E+02</pdfrwt>
<totfact> 0.14879387E+05</totfact>
</mgrwt>
</event>
<event>
 7    1  0.3572151E-009  0.9207216E+02  0.7818608E-02  0.1297910E+00
          1   -1    0    0  501    0  0.00000000000E+00  0.00000000000E+00  0.78401074866E+03  0.78401074868E+03  0.50400000000E-02 0. -1.
         -1   -1    0    0    0  501 -0.00000000000E+00 -0.00000000000E+00 -0.27031755738E+01  0.27031802723E+01  0.50400000000E-02 0.  1.
         23    2    1    2    0    0  0.00000000000E+00  0.35527136788E-14  0.78130757309E+03  0.78671392895E+03  0.92072157788E+02 0.  0.
    9000005    2    3    3    0    0 -0.42673354011E+00 -0.25837149375E+02  0.71466150539E+03  0.71523359089E+03  0.12258950380E+02 0.  0.
         22    1    3    3    0    0  0.42673354011E+00  0.25837149375E+02  0.66646067695E+02  0.71480338056E+02  0.00000000000E+00 0.  1.
         22    1    4    4    0    0 -0.32441638680E+01 -0.22199023158E+01  0.18051980903E+03  0.18056260415E+03  0.00000000000E+00 0. -1.
         22    1    4    4    0    0  0.28174303279E+01 -0.23617247059E+02  0.53414169636E+03  0.53467098675E+03  0.00000000000E+00 0. -1.
<mgrwt>
<rscale>  0 0.92072158E+02</rscale>
<asrwt>0</asrwt>
<pdfrwt beam="1">  1        1 0.12061703E+00 0.92072158E+02</pdfrwt>
<pdfrwt beam="2">  1       -1 0.41587354E-03 0.92072158E+02</pdfrwt>
<totfact> 0.13791766E+05</totfact>
</mgrwt>
</event>
<event>
 7    1  0.3565607E-009  0.9557215E+02  0.7818608E-02  0.1289893E+00
          1   -1    0    0  501    0  0.00000000000E+00  0.00000000000E+00  0.27424007789E+03  0.27424007794E+03  0.50400000000E-02 0. -1.
         -1   -1    0    0    0  501 -0.00000000000E+00 -0.00000000000E+00 -0.83266778396E+01  0.83266793649E+01  0.50400000000E-02 0.  1.
         23    2    1    2    0    0  0.27755575616E-15  0.35527136788E-14  0.26591340005E+03  0.28256675730E+03  0.95572150783E+02 0.  0.
    9000005    2    3    3    0    0 -0.46172792456E+00  0.16172602298E+02  0.26542426388E+03  0.26638017298E+03  0.15703198574E+02 0.  0.
         22    1    3    3    0    0  0.46172792456E+00 -0.16172602298E+02  0.48913617411E+00  0.16186584320E+02  0.00000000000E+00 0.  1.
         22    1    4    4    0    0  0.37455259851E+01  0.15231582167E+02  0.13896135397E+03  0.13984379843E+03  0.00000000000E+00 0. -1.
         22    1    4    4    0    0 -0.42072539097E+01  0.94102013056E+00  0.12646290990E+03  0.12653637455E+03  0.00000000000E+00 0. -1.
<mgrwt>
<rscale>  0 0.95572151E+02</rscale>
<asrwt>0</asrwt>
<pdfrwt beam="1">  1        1 0.42190776E-01 0.95572151E+02</pdfrwt>
<pdfrwt beam="2">  1       -1 0.12810277E-02 0.95572151E+02</pdfrwt>
<totfact> 0.11101805E+05</totfact>
</mgrwt>
</event>
<event>
 7    1  0.3565607E-009  0.8907525E+02  0.7818608E-02  0.1305107E+00
          1   -1    0    0  501    0  0.00000000000E+00  0.00000000000E+00  0.77806002729E+02  0.77806002892E+02  0.50400000000E-02 0. -1.
         -1   -1    0    0    0  501 -0.00000000000E+00 -0.00000000000E+00 -0.25494179280E+02  0.25494179778E+02  0.50400000000E-02 0.  1.
         23    2    1    2    0    0  0.00000000000E+00  0.00000000000E+00  0.52311823449E+02  0.10330018267E+03  0.89075253955E+02 0.  0.
    9000005    2    3    3    0    0 -0.23262436536E+02  0.59780009395E+01 -0.15723702096E+02  0.31149575016E+02  0.12090647926E+02 0.  0.
         22    1    3    3    0    0  0.23262436536E+02 -0.59780009395E+01  0.68035525544E+02  0.72150607654E+02  0.00000000000E+00 0. -1.
         22    1    4    4    0    0 -0.16147991119E+02  0.56609943511E+00 -0.15218485622E+02  0.22196404898E+02  0.00000000000E+00 0.  1.
         22    1    4    4    0    0 -0.71144454163E+01  0.54119015044E+01 -0.50521647314E+00  0.89531701179E+01  0.00000000000E+00 0.  1.
<mgrwt>
<rscale>  0 0.89075254E+02</rscale>
<asrwt>0</asrwt>
<pdfrwt beam="1">  1        1 0.11970154E-01 0.89075254E+02</pdfrwt>
<pdfrwt beam="2">  1       -1 0.39221815E-02 0.89075254E+02</pdfrwt>
<totfact> 0.10692382E+05</totfact>
</mgrwt>
</event>
<event>
 7    1  0.3565607E-009  0.9147953E+02  0.7818608E-02  0.1299308E+00
         -1   -1    0    0    0  501 -0.00000000000E+00  0.00000000000E+00  0.32148750826E+01  0.32148790332E+01  0.50400000000E-02 0.  1.
          1   -1    0    0  501    0  0.00000000000E+00 -0.00000000000E+00 -0.65076401251E+03  0.65076401253E+03  0.50400000000E-02 0. -1.
         23    2    1    2    0    0 -0.17763568394E-14 -0.17763568394E-14 -0.64754913743E+03  0.65397889156E+03  0.91479534469E+02 0.  0.
    9000005    2    3    3    0    0 -0.15486636053E+02 -0.13571395835E+02 -0.61552244930E+03  0.61590360517E+03  0.67339879256E+01 0.  0.
         22    1    3    3    0    0  0.15486636053E+02  0.13571395835E+02 -0.32026688128E+02  0.38075286389E+02  0.00000000000E+00 0.  1.
         22    1    4    4    0    0 -0.14821277823E+02 -0.11536745374E+02 -0.48489955339E+03  0.48526316947E+03  0.00000000000E+00 0.  1.
         22    1    4    4    0    0 -0.66535823036E+00 -0.20346504610E+01 -0.13062289591E+03  0.13064043570E+03  0.00000000000E+00 0.  1.
<mgrwt>
<rscale>  0 0.91479534E+02</rscale>
<asrwt>0</asrwt>
<pdfrwt beam="2">  1        1 0.10011744E+00 0.91479534E+02</pdfrwt>
<pdfrwt beam="1">  1       -1 0.49459699E-03 0.91479534E+02</pdfrwt>
<totfact> 0.14084565E+05</totfact>
</mgrwt>
</event>
<event>
 7    1  0.3565607E-009  0.8968562E+02  0.7818608E-02  0.1303615E+00
         -1   -1    0    0    0  501 -0.00000000000E+00  0.00000000000E+00  0.13687456837E+02  0.13687457764E+02  0.50400000000E-02 0.  1.
          1   -1    0    0  501    0  0.00000000000E+00 -0.00000000000E+00 -0.14691390175E+03  0.14691390184E+03  0.50400000000E-02 0. -1.
         23    2    1    2    0    0 -0.35527136788E-14  0.88817841970E-15 -0.13322644492E+03  0.16060135960E+03  0.89685623606E+02 0.  0.
    9000005    2    3    3    0    0 -0.31400977681E+02  0.51796505564E+01 -0.12206662791E+03  0.12687612136E+03  0.13580807835E+02 0.  0.
         22    1    3    3    0    0  0.31400977681E+02 -0.51796505564E+01 -0.11159817004E+02  0.33725238246E+02  0.00000000000E+00 0.  1.
         22    1    4    4    0    0 -0.61782239707E+01 -0.44384350270E+01 -0.27042628745E+02  0.28092239611E+02  0.00000000000E+00 0.  1.
         22    1    4    4    0    0 -0.25222753711E+02  0.96180855834E+01 -0.95023999169E+02  0.98783881747E+02  0.00000000000E+00 0.  1.
<mgrwt>
<rscale>  0 0.89685624E+02</rscale>
<asrwt>0</asrwt>
<pdfrwt beam="2">  1        1 0.22602138E-01 0.89685624E+02</pdfrwt>
<pdfrwt beam="1">  1       -1 0.21057628E-02 0.89685624E+02</pdfrwt>
<totfact> 0.11678140E+05</totfact>
</mgrwt>
</event>
<event>
 7    1  0.3565607E-009  0.9023708E+02  0.7818608E-02  0.1302279E+00
         -1   -1    0    0    0  501 -0.00000000000E+00  0.00000000000E+00  0.97668773725E+02  0.97668773855E+02  0.50400000000E-02 0.  1.
          1   -1    0    0  501    0  0.00000000000E+00 -0.00000000000E+00 -0.20842718910E+02  0.20842719519E+02  0.50400000000E-02 0. -1.
         23    2    1    2    0    0  0.00000000000E+00  0.00000000000E+00  0.76826054815E+02  0.11851149337E+03  0.90237084191E+02 0.  0.
    9000005    2    3    3    0    0 -0.26801677451E+02  0.26941843145E+02  0.68570097636E+02  0.79622501934E+02  0.13917316486E+02 0.  0.
         22    1    3    3    0    0  0.26801677451E+02 -0.26941843145E+02  0.82559571790E+01  0.38888991440E+02  0.00000000000E+00 0. -1.
         22    1    4    4    0    0 -0.23642788021E+02  0.27355990705E+02  0.56026115639E+02  0.66680261595E+02  0.00000000000E+00 0.  1.
         22    1    4    4    0    0 -0.31588894298E+01 -0.41414755977E+00  0.12543981998E+02  0.12942240339E+02  0.00000000000E+00 0.  1.
<mgrwt>
<rscale>  0 0.90237084E+02</rscale>
<asrwt>0</asrwt>
<pdfrwt beam="2">  1        1 0.32065721E-02 0.90237084E+02</pdfrwt>
<pdfrwt beam="1">  1       -1 0.15025966E-01 0.90237084E+02</pdfrwt>
<totfact> 0.83932843E+04</totfact>
</mgrwt>
</event>
<event>
 7    1  0.3565607E-009  0.8894984E+02  0.7818608E-02  0.1305415E+00
         -1   -1    0    0    0  501 -0.00000000000E+00  0.00000000000E+00  0.20257002142E+02  0.20257002769E+02  0.50400000000E-02 0.  1.
          1   -1    0    0  501    0  0.00000000000E+00 -0.00000000000E+00 -0.97646158292E+02  0.97646158422E+02  0.50400000000E-02 0. -1.
         23    2    1    2    0    0 -0.35527136788E-14  0.17763568394E-14 -0.77389156150E+02  0.11790316119E+03  0.88949839400E+02 0.  0.
    9000005    2    3    3    0    0 -0.29975967960E+02  0.11793005169E+02 -0.13484698371E+01  0.35320962134E+02  0.14426308229E+02 0.  0.
         22    1    3    3    0    0  0.29975967960E+02 -0.11793005169E+02 -0.76040686313E+02  0.82582199057E+02  0.00000000000E+00 0. -1.
         22    1    4    4    0    0 -0.32434027159E+01  0.49679743723E+01 -0.46445260762E+01  0.75347231544E+01  0.00000000000E+00 0. -1.
         22    1    4    4    0    0 -0.26732565244E+02  0.68250307970E+01  0.32960562391E+01  0.27786238980E+02  0.00000000000E+00 0. -1.
<mgrwt>
<rscale>  0 0.88949839E+02</rscale>
<asrwt>0</asrwt>
<pdfrwt beam="2">  1        1 0.15022486E-01 0.88949839E+02</pdfrwt>
<pdfrwt beam="1">  1       -1 0.31164620E-02 0.88949839E+02</pdfrwt>
<totfact> 0.11128239E+05</totfact>
</mgrwt>
</event>
<event>
 7    1  0.3565607E-009  0.9236182E+02  0.7818608E-02  0.1297231E+00
         -1   -1    0    0    0  501 -0.00000000000E+00  0.00000000000E+00  0.93031108228E+01  0.93031121881E+01  0.50400000000E-02 0.  1.
          1   -1    0    0  501    0  0.00000000000E+00 -0.00000000000E+00 -0.22924332754E+03  0.22924332760E+03  0.50400000000E-02 0. -1.
         23    2    1    2    0    0 -0.88817841970E-15  0.00000000000E+00 -0.21994021672E+03  0.23854643979E+03  0.92361815725E+02 0.  0.
    9000005    2    3    3    0    0 -0.18855568707E+01  0.34212253934E+02 -0.38033097554E+02  0.53440433273E+02  0.15340461367E+02 0.  0.
         22    1    3    3    0    0  0.18855568707E+01 -0.34212253934E+02 -0.18190711917E+03  0.18510600651E+03  0.00000000000E+00 0. -1.
         22    1    4    4    0    0 -0.54260722037E+01  0.14467484780E+02 -0.82060408066E+01  0.17495413146E+02  0.00000000000E+00 0.  1.
         22    1    4    4    0    0  0.35405153330E+01  0.19744769154E+02 -0.29827056747E+02  0.35945020128E+02  0.00000000000E+00 0.  1.
<mgrwt>
<rscale>  0 0.92361816E+02</rscale>
<asrwt>0</asrwt>
<pdfrwt beam="2">  1        1 0.35268200E-01 0.92361816E+02</pdfrwt>
<pdfrwt beam="1">  1       -1 0.14312481E-02 0.92361816E+02</pdfrwt>
<totfact> 0.11746170E+05</totfact>
</mgrwt>
</event>
<event>
 7    1  0.3565607E-009  0.8805251E+02  0.7818608E-02  0.1307638E+00
         -1   -1    0    0    0  501 -0.00000000000E+00  0.00000000000E+00  0.15772197894E+03  0.15772197902E+03  0.50400000000E-02 0.  1.
          1   -1    0    0  501    0  0.00000000000E+00 -0.00000000000E+00 -0.12289416001E+02  0.12289417035E+02  0.50400000000E-02 0. -1.
         23    2    1    2    0    0  0.00000000000E+00  0.00000000000E+00  0.14543256294E+03  0.17001139606E+03  0.88052509480E+02 0.  0.
    9000005    2    3    3    0    0 -0.33873169504E+02 -0.21742791492E+02  0.10707934388E+03  0.11441364424E+03  0.20869858836E+01 0.  0.
         22    1    3    3    0    0  0.33873169504E+02  0.21742791492E+02  0.38353219065E+02  0.55597751813E+02  0.00000000000E+00 0. -1.
         22    1    4    4    0    0 -0.29972478174E+01 -0.26183856444E+01  0.99885744271E+01  0.10752258225E+02  0.00000000000E+00 0. -1.
         22    1    4    4    0    0 -0.30875921686E+02 -0.19124405847E+02  0.97090769448E+02  0.10366138602E+03  0.00000000000E+00 0. -1.
<mgrwt>
<rscale>  0 0.88052509E+02</rscale>
<asrwt>0</asrwt>
<pdfrwt beam="2">  1        1 0.18906796E-02 0.88052509E+02</pdfrwt>
<pdfrwt beam="1">  1       -1 0.24264918E-01 0.88052509E+02</pdfrwt>
<totfact> 0.80892896E+04</totfact>
</mgrwt>
</event>
<event>
 7    1  0.3565607E-009  0.9095723E+02  0.7818608E-02  0.1300550E+00
          1   -1    0    0  501    0  0.00000000000E+00  0.00000000000E+00  0.43320931997E+03  0.43320932000E+03  0.50400000000E-02 0. -1.
         -1   -1    0    0    0  501 -0.00000000000E+00 -0.00000000000E+00 -0.47743750238E+01  0.47743776840E+01  0.50400000000E-02 0.  1.
         23    2    1    2    0    0  0.00000000000E+00  0.88817841970E-15  0.42843494495E+03  0.43798369769E+03  0.90957228329E+02 0.  0.
    9000005    2    3    3    0    0  0.15677823790E+02 -0.79013063048E+01  0.41583292481E+03  0.41637268865E+03  0.11873065910E+02 0.  0.
         22    1    3    3    0    0 -0.15677823790E+02  0.79013063048E+01  0.12602020136E+02  0.21611009038E+02  0.00000000000E+00 0.  1.
         22    1    4    4    0    0  0.10509987926E+02 -0.10433552609E+02  0.24855258989E+03  0.24899339109E+03  0.00000000000E+00 0. -1.
         22    1    4    4    0    0  0.51678358642E+01  0.25322463038E+01  0.16728033492E+03  0.16737929756E+03  0.00000000000E+00 0. -1.
<mgrwt>
<rscale>  0 0.90957228E+02</rscale>
<asrwt>0</asrwt>
<pdfrwt beam="1">  1        1 0.66647633E-01 0.90957228E+02</pdfrwt>
<pdfrwt beam="2">  1       -1 0.73451894E-03 0.90957228E+02</pdfrwt>
<totfact> 0.13747080E+05</totfact>
</mgrwt>
</event>
<event>
 7    1  0.3565607E-009  0.8846909E+02  0.7818608E-02  0.1306602E+00
          1   -1    0    0  501    0  0.00000000000E+00  0.00000000000E+00  0.50667647090E+03  0.50667647093E+03  0.50400000000E-02 0. -1.
         -1   -1    0    0    0  501 -0.00000000000E+00 -0.00000000000E+00 -0.38618216984E+01  0.38618249872E+01  0.50400000000E-02 0.  1.
         23    2    1    2    0    0  0.71054273576E-14  0.00000000000E+00  0.50281464920E+03  0.51053829591E+03  0.88469091446E+02 0.  0.
    9000005    2    3    3    0    0  0.34552037635E+02 -0.17651232219E+02  0.37207152710E+03  0.37415950988E+03  0.72600447176E+01 0.  0.
         22    1    3    3    0    0 -0.34552037635E+02  0.17651232219E+02  0.13074312210E+03  0.13637878603E+03  0.00000000000E+00 0.  1.
         22    1    4    4    0    0  0.70674352565E+01 -0.33279743586E+01  0.50887400837E+02  0.51483508218E+02  0.00000000000E+00 0. -1.
         22    1    4    4    0    0  0.27484602379E+02 -0.14323257860E+02  0.32118412627E+03  0.32267600166E+03  0.00000000000E+00 0. -1.
<mgrwt>
<rscale>  0 0.88469091E+02</rscale>
<asrwt>0</asrwt>
<pdfrwt beam="1">  1        1 0.77950191E-01 0.88469091E+02</pdfrwt>
<pdfrwt beam="2">  1       -1 0.59412694E-03 0.88469091E+02</pdfrwt>
<totfact> 0.15105715E+05</totfact>
</mgrwt>
</event>
<event>
 7    1  0.3565607E-009  0.9009033E+02  0.7818608E-02  0.1302633E+00
          1   -1    0    0  501    0  0.00000000000E+00  0.00000000000E+00  0.10938174366E+03  0.10938174378E+03  0.50400000000E-02 0. -1.
         -1   -1    0    0    0  501 -0.00000000000E+00 -0.00000000000E+00 -0.18550324803E+02  0.18550325487E+02  0.50400000000E-02 0.  1.
         23    2    1    2    0    0  0.00000000000E+00  0.00000000000E+00  0.90831418858E+02  0.12793206926E+03  0.90090330749E+02 0.  0.
    9000005    2    3    3    0    0 -0.23755022492E+02  0.72417959606E+01 -0.66559960658E+01  0.27331170805E+02  0.92707017853E+01 0.  0.
         22    1    3    3    0    0  0.23755022492E+02 -0.72417959606E+01  0.97487414924E+02  0.10060089846E+03  0.00000000000E+00 0. -1.
         22    1    4    4    0    0 -0.18005282743E+02  0.92274543102E+01 -0.36983774474E+01  0.20567306957E+02  0.00000000000E+00 0. -1.
         22    1    4    4    0    0 -0.57497397488E+01 -0.19856583496E+01 -0.29576186184E+01  0.67638638479E+01  0.00000000000E+00 0. -1.
<mgrwt>
<rscale>  0 0.90090331E+02</rscale>
<asrwt>0</asrwt>
<pdfrwt beam="1">  1        1 0.16827960E-01 0.90090331E+02</pdfrwt>
<pdfrwt beam="2">  1       -1 0.28538962E-02 0.90090331E+02</pdfrwt>
<totfact> 0.10954604E+05</totfact>
</mgrwt>
</event>
<event>
 7    1  0.3565607E-009  0.1081756E+03  0.7818608E-02  0.1263986E+00
         -1   -1    0    0    0  501 -0.00000000000E+00  0.00000000000E+00  0.64281079964E+01  0.64281099722E+01  0.50400000000E-02 0.  1.
          1   -1    0    0  501    0  0.00000000000E+00 -0.00000000000E+00 -0.45510898400E+03  0.45510898403E+03  0.50400000000E-02 0. -1.
         23    2    1    2    0    0  0.00000000000E+00  0.00000000000E+00 -0.44868087600E+03  0.46153709400E+03  0.10817560098E+03 0.  0.
    9000005    2    3    3    0    0  0.75023388882E+01  0.42096642225E+02 -0.36262437210E+03  0.36544269125E+03  0.14950350276E+02 0.  0.
         22    1    3    3    0    0 -0.75023388882E+01 -0.42096642225E+02 -0.86056503904E+02  0.96094402748E+02  0.00000000000E+00 0.  1.
         22    1    4    4    0    0 -0.43584967018E+01  0.13973135640E+02 -0.13130814714E+03  0.13212143853E+03  0.00000000000E+00 0.  1.
         22    1    4    4    0    0  0.11860835590E+02  0.28123506584E+02 -0.23131622496E+03  0.23332125272E+03  0.00000000000E+00 0.  1.
<mgrwt>
<rscale>  0 0.10817560E+03</rscale>
<asrwt>0</asrwt>
<pdfrwt beam="2">  1        1 0.70016741E-01 0.10817560E+03</pdfrwt>
<pdfrwt beam="1">  1       -1 0.98894021E-03 0.10817560E+03</pdfrwt>
<totfact> 0.87085987E+04</totfact>
</mgrwt>
</event>
<event>
 7    1  0.3565607E-009  0.9047714E+02  0.7818608E-02  0.1301700E+00
          1   -1    0    0  501    0  0.00000000000E+00  0.00000000000E+00  0.30143387888E+03  0.30143387892E+03  0.50400000000E-02 0.  1.
         -1   -1    0    0    0  501 -0.00000000000E+00 -0.00000000000E+00 -0.67893093693E+01  0.67893112400E+01  0.50400000000E-02 0. -1.
         23    2    1    2    0    0  0.00000000000E+00  0.17763568394E-14  0.29464456951E+03  0.30822319016E+03  0.90477138613E+02 0.  0.
    9000005    2    3    3    0    0  0.18305277977E+02  0.14637801528E+02  0.27887371506E+03  0.27997308776E+03  0.80642721252E+01 0.  0.
         22    1    3    3    0    0 -0.18305277977E+02 -0.14637801528E+02  0.15770854448E+02  0.28250102396E+02  0.00000000000E+00 0. -1.
         22    1    4    4    0    0  0.13786964009E+02  0.10619369293E+02  0.24019214561E+03  0.24082175607E+03  0.00000000000E+00 0. -1.
         22    1    4    4    0    0  0.45183139684E+01  0.40184322352E+01  0.38681569446E+02  0.39151331696E+02  0.00000000000E+00 0. -1.
<mgrwt>
<rscale>  0 0.90477139E+02</rscale>
<asrwt>0</asrwt>
<pdfrwt beam="1">  1        1 0.46374441E-01 0.90477139E+02</pdfrwt>
<pdfrwt beam="2">  1       -1 0.10445093E-02 0.90477139E+02</pdfrwt>
<totfact> 0.13089559E+05</totfact>
</mgrwt>
</event>
<event>
 7    1  0.3565607E-009  0.9403066E+02  0.7818608E-02  0.1293374E+00
         -1   -1    0    0    0  501 -0.00000000000E+00  0.00000000000E+00  0.73142303724E+01  0.73142321088E+01  0.50400000000E-02 0.  1.
          1   -1    0    0  501    0  0.00000000000E+00 -0.00000000000E+00 -0.30221101476E+03  0.30221101480E+03  0.50400000000E-02 0. -1.
         23    2    1    2    0    0  0.17763568394E-14  0.71054273576E-14 -0.29489678438E+03  0.30952524691E+03  0.94030660069E+02 0.  0.
    9000005    2    3    3    0    0  0.14658406762E+02  0.43345139708E+02 -0.15679752399E+03  0.16404302893E+03  0.15198084987E+02 0.  0.
         22    1    3    3    0    0 -0.14658406762E+02 -0.43345139708E+02 -0.13809926040E+03  0.14548221798E+03  0.00000000000E+00 0. -1.
         22    1    4    4    0    0  0.11391183427E+02  0.42907795038E+02 -0.13819171265E+03  0.14514746770E+03  0.00000000000E+00 0. -1.
         22    1    4    4    0    0  0.32672233350E+01  0.43734466954E+00 -0.18605811334E+02  0.18895561227E+02  0.00000000000E+00 0. -1.
<mgrwt>
<rscale>  0 0.94030660E+02</rscale>
<asrwt>0</asrwt>
<pdfrwt beam="2">  1        1 0.46493993E-01 0.94030660E+02</pdfrwt>
<pdfrwt beam="1">  1       -1 0.11252666E-02 0.94030660E+02</pdfrwt>
<totfact> 0.11816588E+05</totfact>
</mgrwt>
</event>
<event>
 7    1  0.3565607E-009  0.9197854E+02  0.7818608E-02  0.1298130E+00
         -1   -1    0    0    0  501 -0.00000000000E+00  0.00000000000E+00  0.45633442392E+01  0.45633470224E+01  0.50400000000E-02 0.  1.
          1   -1    0    0  501    0  0.00000000000E+00 -0.00000000000E+00 -0.46347862209E+03  0.46347862212E+03  0.50400000000E-02 0. -1.
         23    2    1    2    0    0 -0.35527136788E-14  0.00000000000E+00 -0.45891527785E+03  0.46804196914E+03  0.91978544408E+02 0.  0.
    9000005    2    3    3    0    0 -0.21390991191E+02 -0.21861514183E+02 -0.40345030237E+03  0.40470269372E+03  0.87534855706E+01 0.  0.
         22    1    3    3    0    0  0.21390991191E+02  0.21861514183E+02 -0.55464975478E+02  0.63339275424E+02  0.00000000000E+00 0.  1.
         22    1    4    4    0    0 -0.12885622167E+02 -0.18659708961E+02 -0.29793745878E+03  0.29879918564E+03  0.00000000000E+00 0.  1.
         22    1    4    4    0    0 -0.85053690237E+01 -0.32018052217E+01 -0.10551284360E+03  0.10590350807E+03  0.00000000000E+00 0.  1.
<mgrwt>
<rscale>  0 0.91978544E+02</rscale>
<asrwt>0</asrwt>
<pdfrwt beam="2">  1        1 0.71304366E-01 0.91978544E+02</pdfrwt>
<pdfrwt beam="1">  1       -1 0.70205354E-03 0.91978544E+02</pdfrwt>
<totfact> 0.13475712E+05</totfact>
</mgrwt>
</event>
<event>
 7    1  0.3565607E-009  0.7137270E+02  0.7818608E-02  0.1355486E+00
         -1   -1    0    0    0  501 -0.00000000000E+00  0.00000000000E+00  0.29888774035E+01  0.29888816529E+01  0.50400000000E-02 0.  1.
          1   -1    0    0  501    0  0.00000000000E+00 -0.00000000000E+00 -0.42608466737E+03  0.42608466740E+03  0.50400000000E-02 0. -1.
         23    2    1    2    0    0  0.00000000000E+00  0.00000000000E+00 -0.42309578997E+03  0.42907354906E+03  0.71372704932E+02 0.  0.
    9000005    2    3    3    0    0 -0.13480452262E+02 -0.20082489568E+02 -0.36804669282E+03  0.36894508593E+03  0.87794850999E+01 0.  0.
         22    1    3    3    0    0  0.13480452262E+02  0.20082489568E+02 -0.55049097150E+02  0.60128463122E+02  0.00000000000E+00 0.  1.
         22    1    4    4    0    0 -0.11552106726E+02 -0.20410759234E+02 -0.35183266181E+03  0.35261348837E+03  0.00000000000E+00 0.  1.
         22    1    4    4    0    0 -0.19283455362E+01  0.32826966630E+00 -0.16214031006E+02  0.16331597563E+02  0.00000000000E+00 0.  1.
<mgrwt>
<rscale>  0 0.71372705E+02</rscale>
<asrwt>0</asrwt>
<pdfrwt beam="2">  1        1 0.65551439E-01 0.71372705E+02</pdfrwt>
<pdfrwt beam="1">  1       -1 0.45982796E-03 0.71372705E+02</pdfrwt>
<totfact> 0.25884504E+05</totfact>
</mgrwt>
</event>
<event>
 7    1  0.3565607E-009  0.9732681E+02  0.7818608E-02  0.1286020E+00
         -1   -1    0    0    0  501 -0.00000000000E+00  0.00000000000E+00  0.67444062969E+01  0.67444081800E+01  0.50400000000E-02 0.  1.
          1   -1    0    0  501    0  0.00000000000E+00 -0.00000000000E+00 -0.35112456154E+03  0.35112456157E+03  0.50400000000E-02 0. -1.
         23    2    1    2    0    0  0.00000000000E+00  0.00000000000E+00 -0.34438015524E+03  0.35786896975E+03  0.97326811255E+02 0.  0.
    9000005    2    3    3    0    0  0.45860594186E+02 -0.68974253545E+01 -0.13731068319E+03  0.14566968881E+03  0.14651482716E+02 0.  0.
         22    1    3    3    0    0 -0.45860594186E+02  0.68974253545E+01 -0.20706947205E+03  0.21219928094E+03  0.00000000000E+00 0. -1.
         22    1    4    4    0    0  0.37266263308E+02 -0.97793070434E+01 -0.12129156054E+03  0.12726371001E+03  0.00000000000E+00 0. -1.
         22    1    4    4    0    0  0.85943308773E+01  0.28818816888E+01 -0.16019122648E+02  0.18405978803E+02  0.00000000000E+00 0. -1.
<mgrwt>
<rscale>  0 0.97326811E+02</rscale>
<asrwt>0</asrwt>
<pdfrwt beam="2">  1        1 0.54019149E-01 0.97326811E+02</pdfrwt>
<pdfrwt beam="1">  1       -1 0.10376014E-02 0.97326811E+02</pdfrwt>
<totfact> 0.11081657E+05</totfact>
</mgrwt>
</event>
<event>
 7    1  0.3565607E-009  0.9190292E+02  0.7818608E-02  0.1298308E+00
         -1   -1    0    0    0  501 -0.00000000000E+00  0.00000000000E+00  0.11414930060E+02  0.11414931173E+02  0.50400000000E-02 0.  1.
          1   -1    0    0  501    0  0.00000000000E+00 -0.00000000000E+00 -0.18498023736E+03  0.18498023743E+03  0.50400000000E-02 0. -1.
         23    2    1    2    0    0  0.00000000000E+00  0.00000000000E+00 -0.17356530730E+03  0.19639516860E+03  0.91902918081E+02 0.  0.
    9000005    2    3    3    0    0  0.33267415022E+02 -0.52325209065E+01 -0.15333112522E+03  0.15710748221E+03  0.61827849091E+01 0.  0.
         22    1    3    3    0    0 -0.33267415022E+02  0.52325209065E+01 -0.20234182084E+02  0.39287686390E+02  0.00000000000E+00 0.  1.
         22    1    4    4    0    0  0.15948167780E+02 -0.36499292221E+01 -0.61189487488E+02  0.63338924982E+02  0.00000000000E+00 0.  1.
         22    1    4    4    0    0  0.17319247243E+02 -0.15825916845E+01 -0.92141637729E+02  0.93768557230E+02  0.00000000000E+00 0.  1.
<mgrwt>
<rscale>  0 0.91902918E+02</rscale>
<asrwt>0</asrwt>
<pdfrwt beam="2">  1        1 0.28458496E-01 0.91902918E+02</pdfrwt>
<pdfrwt beam="1">  1       -1 0.17561433E-02 0.91902918E+02</pdfrwt>
<totfact> 0.11417330E+05</totfact>
</mgrwt>
</event>
<event>
 7    1  0.3565607E-009  0.9240368E+02  0.7818608E-02  0.1297133E+00
          1   -1    0    0  501    0  0.00000000000E+00  0.00000000000E+00  0.23337938100E+03  0.23337938105E+03  0.50400000000E-02 0. -1.
         -1   -1    0    0    0  501 -0.00000000000E+00 -0.00000000000E+00 -0.91465226417E+01  0.91465240302E+01  0.50400000000E-02 0.  1.
         23    2    1    2    0    0  0.00000000000E+00  0.00000000000E+00  0.22423285835E+03  0.24252590508E+03  0.92403678874E+02 0.  0.
    9000005    2    3    3    0    0  0.19826143166E+02  0.38330812593E+02  0.81403726689E+02  0.93319712182E+02  0.14821430972E+02 0.  0.
         22    1    3    3    0    0 -0.19826143166E+02 -0.38330812593E+02  0.14282913166E+03  0.14920619290E+03  0.00000000000E+00 0. -1.
         22    1    4    4    0    0  0.85113169170E+01  0.15968369417E+02  0.19852324787E+02  0.26861610841E+02  0.00000000000E+00 0.  1.
         22    1    4    4    0    0  0.11314826249E+02  0.22362443176E+02  0.61551401902E+02  0.66458101342E+02  0.00000000000E+00 0.  1.
<mgrwt>
<rscale>  0 0.92403679E+02</rscale>
<asrwt>0</asrwt>
<pdfrwt beam="1">  1        1 0.35904513E-01 0.92403679E+02</pdfrwt>
<pdfrwt beam="2">  1       -1 0.14071577E-02 0.92403679E+02</pdfrwt>
<totfact> 0.11773086E+05</totfact>
</mgrwt>
</event>
<event>
 7    1  0.3565607E-009  0.9220853E+02  0.7818608E-02  0.1297590E+00
         -1   -1    0    0    0  501 -0.00000000000E+00  0.00000000000E+00  0.85162420244E+01  0.85162435158E+01  0.50400000000E-02 0.  1.
          1   -1    0    0  501    0  0.00000000000E+00 -0.00000000000E+00 -0.24959403233E+03  0.24959403238E+03  0.50400000000E-02 0. -1.
         23    2    1    2    0    0 -0.35527136788E-14  0.00000000000E+00 -0.24107779031E+03  0.25811027590E+03  0.92208532929E+02 0.  0.
    9000005    2    3    3    0    0 -0.28214795620E+02  0.34607579595E+02 -0.13144993276E+03  0.13973787029E+03  0.15931990317E+02 0.  0.
         22    1    3    3    0    0  0.28214795620E+02 -0.34607579595E+02 -0.10962785755E+03  0.11837240561E+03  0.00000000000E+00 0.  1.
         22    1    4    4    0    0 -0.11212969405E+02  0.32109792462E+01 -0.29932867868E+02  0.32125031508E+02  0.00000000000E+00 0.  1.
         22    1    4    4    0    0 -0.17001826215E+02  0.31396600349E+02 -0.10151706489E+03  0.10761283879E+03  0.00000000000E+00 0.  1.
<mgrwt>
<rscale>  0 0.92208533E+02</rscale>
<asrwt>0</asrwt>
<pdfrwt beam="2">  1        1 0.38399077E-01 0.92208533E+02</pdfrwt>
<pdfrwt beam="1">  1       -1 0.13101914E-02 0.92208533E+02</pdfrwt>
<totfact> 0.11996518E+05</totfact>
</mgrwt>
</event>
<event>
 7    1  0.3565607E-009  0.8850777E+02  0.7818608E-02  0.1306506E+00
         -1   -1    0    0    0  501 -0.00000000000E+00  0.00000000000E+00  0.78071459234E+01  0.78071475502E+01  0.50400000000E-02 0.  1.
          1   -1    0    0  501    0  0.00000000000E+00 -0.00000000000E+00 -0.25084788416E+03  0.25084788421E+03  0.50400000000E-02 0. -1.
         23    2    1    2    0    0  0.00000000000E+00  0.00000000000E+00 -0.24304073823E+03  0.25865503176E+03  0.88507768091E+02 0.  0.
    9000005    2    3    3    0    0 -0.33242697666E+02 -0.16258487121E+02 -0.18909117568E+03  0.19323354713E+03  0.14639524019E+02 0.  0.
         22    1    3    3    0    0  0.33242697666E+02  0.16258487121E+02 -0.53949562551E+02  0.65421484629E+02  0.00000000000E+00 0.  1.
         22    1    4    4    0    0 -0.19398782774E+02 -0.16440989070E+02 -0.13663042339E+03  0.13897658612E+03  0.00000000000E+00 0. -1.
         22    1    4    4    0    0 -0.13843914892E+02  0.18250194867E+00 -0.52460752289E+02  0.54256961003E+02  0.00000000000E+00 0. -1.
<mgrwt>
<rscale>  0 0.88507768E+02</rscale>
<asrwt>0</asrwt>
<pdfrwt beam="2">  1        1 0.38591976E-01 0.88507768E+02</pdfrwt>
<pdfrwt beam="1">  1       -1 0.12010997E-02 0.88507768E+02</pdfrwt>
<totfact> 0.13395070E+05</totfact>
</mgrwt>
</event>
<event>
 7    1  0.3565607E-009  0.9149257E+02  0.7818608E-02  0.1299277E+00
          1   -1    0    0  501    0  0.00000000000E+00  0.00000000000E+00  0.92357346330E+01  0.92357360082E+01  0.50400000000E-02 0. -1.
         -1   -1    0    0    0  501 -0.00000000000E+00 -0.00000000000E+00 -0.22658971140E+03  0.22658971145E+03  0.50400000000E-02 0.  1.
         23    2    1    2    0    0  0.00000000000E+00  0.00000000000E+00 -0.21735397677E+03  0.23582544746E+03  0.91492570492E+02 0.  0.
    9000005    2    3    3    0    0  0.41423377581E+02 -0.99878981788E+01 -0.14977488186E+03  0.15593434415E+03  0.82067124399E+01 0.  0.
         22    1    3    3    0    0 -0.41423377581E+02  0.99878981788E+01 -0.67579094901E+02  0.79891103309E+02  0.00000000000E+00 0. -1.
         22    1    4    4    0    0  0.29882974276E+02 -0.98920956501E+01 -0.11808228118E+03  0.12220585434E+03  0.00000000000E+00 0.  1.
         22    1    4    4    0    0  0.11540403304E+02 -0.95802528706E-01 -0.31692600687E+02  0.33728489810E+02  0.00000000000E+00 0.  1.
<mgrwt>
<rscale>  0 0.91492570E+02</rscale>
<asrwt>0</asrwt>
<pdfrwt beam="1">  1        1 0.14208825E-02 0.91492570E+02</pdfrwt>
<pdfrwt beam="2">  1       -1 0.34859952E-01 0.91492570E+02</pdfrwt>
<totfact> 0.66274738E+04</totfact>
</mgrwt>
</event>
<event>
 7    1  0.3565607E-009  0.8628677E+02  0.7818608E-02  0.1312101E+00
          1   -1    0    0  501    0  0.00000000000E+00  0.00000000000E+00  0.25613605633E+02  0.25613606129E+02  0.50400000000E-02 0. -1.
         -1   -1    0    0    0  501 -0.00000000000E+00 -0.00000000000E+00 -0.72670431508E+02  0.72670431683E+02  0.50400000000E-02 0.  1.
         23    2    1    2    0    0 -0.17763568394E-14  0.71054273576E-14 -0.47056825875E+02  0.98284037812E+02  0.86286773188E+02 0.  0.
    9000005    2    3    3    0    0  0.13572952875E+02 -0.36219544115E+02 -0.42603906558E+02  0.59349362828E+02  0.14531812978E+02 0.  0.
         22    1    3    3    0    0 -0.13572952875E+02  0.36219544115E+02 -0.44529193171E+01  0.38934674984E+02  0.00000000000E+00 0. -1.
         22    1    4    4    0    0  0.52348528610E+01 -0.16722227057E+02 -0.29824147223E+02  0.34590697013E+02  0.00000000000E+00 0.  1.
         22    1    4    4    0    0  0.83381000144E+01 -0.19497317058E+02 -0.12779759335E+02  0.24758665815E+02  0.00000000000E+00 0.  1.
<mgrwt>
<rscale>  0 0.86286773E+02</rscale>
<asrwt>0</asrwt>
<pdfrwt beam="1">  1        1 0.39405548E-02 0.86286773E+02</pdfrwt>
<pdfrwt beam="2">  1       -1 0.11180066E-01 0.86286773E+02</pdfrwt>
<totfact> 0.98989271E+04</totfact>
</mgrwt>
</event>
<event>
 7    1  0.3565607E-009  0.9080209E+02  0.7818608E-02  0.1300921E+00
         -1   -1    0    0    0  501 -0.00000000000E+00  0.00000000000E+00  0.75590287162E+01  0.75590303964E+01  0.50400000000E-02 0.  1.
          1   -1    0    0  501    0  0.00000000000E+00 -0.00000000000E+00 -0.27268774803E+03  0.27268774808E+03  0.50400000000E-02 0. -1.
         23    2    1    2    0    0  0.00000000000E+00  0.00000000000E+00 -0.26512871932E+03  0.28024677848E+03  0.90802087199E+02 0.  0.
    9000005    2    3    3    0    0  0.33641203433E+02  0.29238563549E+02 -0.10607628088E+03  0.11506717217E+03  0.12855267234E+01 0.  0.
         22    1    3    3    0    0 -0.33641203433E+02 -0.29238563549E+02 -0.15905243844E+03  0.16517960631E+03  0.00000000000E+00 0. -1.
         22    1    4    4    0    0  0.18807669863E+02  0.15599668879E+02 -0.57352127688E+02  0.62340553936E+02  0.00000000000E+00 0. -1.
         22    1    4    4    0    0  0.14833533570E+02  0.13638894670E+02 -0.48724153193E+02  0.52726618234E+02  0.00000000000E+00 0. -1.
<mgrwt>
<rscale>  0 0.90802087E+02</rscale>
<asrwt>0</asrwt>
<pdfrwt beam="2">  1        1 0.41951954E-01 0.90802087E+02</pdfrwt>
<pdfrwt beam="1">  1       -1 0.11629278E-02 0.90802087E+02</pdfrwt>
<totfact> 0.12717415E+05</totfact>
</mgrwt>
</event>
<event>
 7    1  0.3565607E-009  0.9658657E+02  0.7818608E-02  0.1287642E+00
          1   -1    0    0  501    0  0.00000000000E+00  0.00000000000E+00  0.76133666496E+02  0.76133666662E+02  0.50400000000E-02 0. -1.
         -1   -1    0    0    0  501 -0.00000000000E+00 -0.00000000000E+00 -0.30633509355E+02  0.30633509770E+02  0.50400000000E-02 0.  1.
         23    2    1    2    0    0  0.35527136788E-14  0.00000000000E+00  0.45500157140E+02  0.10676717643E+03  0.96586570824E+02 0.  0.
    9000005    2    3    3    0    0  0.30412822203E+02 -0.22514030088E+02  0.54555525746E+02  0.67859323681E+02  0.14027156372E+02 0.  0.
         22    1    3    3    0    0 -0.30412822203E+02  0.22514030088E+02 -0.90553686054E+01  0.38907852751E+02  0.00000000000E+00 0.  1.
         22    1    4    4    0    0  0.14168976239E+02 -0.23881983801E+01  0.22074994780E+02  0.26339490764E+02  0.00000000000E+00 0.  1.
         22    1    4    4    0    0  0.16243845964E+02 -0.20125831708E+02  0.32480530966E+02  0.41519832917E+02  0.00000000000E+00 0.  1.
<mgrwt>
<rscale>  0 0.96586571E+02</rscale>
<asrwt>0</asrwt>
<pdfrwt beam="1">  1        1 0.11712872E-01 0.96586571E+02</pdfrwt>
<pdfrwt beam="2">  1       -1 0.47128476E-02 0.96586571E+02</pdfrwt>
<totfact> 0.85245631E+04</totfact>
</mgrwt>
</event>
<event>
 7    1  0.3565607E-009  0.9126620E+02  0.7818608E-02  0.1299814E+00
         -1   -1    0    0    0  501 -0.00000000000E+00  0.00000000000E+00  0.10761992448E+02  0.10761993628E+02  0.50400000000E-02 0.  1.
          1   -1    0    0  501    0  0.00000000000E+00 -0.00000000000E+00 -0.19349387546E+03  0.19349387552E+03  0.50400000000E-02 0. -1.
         23    2    1    2    0    0 -0.17763568394E-14  0.00000000000E+00 -0.18273188301E+03  0.20425586915E+03  0.91266198643E+02 0.  0.
    9000005    2    3    3    0    0  0.12829570646E+02  0.42749882201E+02 -0.96339045388E+02  0.10701455744E+03  0.13369873846E+02 0.  0.
         22    1    3    3    0    0 -0.12829570646E+02 -0.42749882201E+02 -0.86392837620E+02  0.97241311711E+02  0.00000000000E+00 0. -1.
         22    1    4    4    0    0  0.47459374715E+01  0.32802588365E+02 -0.61001369135E+02  0.69424064720E+02  0.00000000000E+00 0.  1.
         22    1    4    4    0    0  0.80836331745E+01  0.99472938357E+01 -0.35337676253E+02  0.37590492720E+02  0.00000000000E+00 0.  1.
<mgrwt>
<rscale>  0 0.91266199E+02</rscale>
<asrwt>0</asrwt>
<pdfrwt beam="2">  1        1 0.29768286E-01 0.91266199E+02</pdfrwt>
<pdfrwt beam="1">  1       -1 0.16556914E-02 0.91266199E+02</pdfrwt>
<totfact> 0.11734121E+05</totfact>
</mgrwt>
</event>
<event>
 7    1  0.3565607E-009  0.8034970E+02  0.7818608E-02  0.1328062E+00
         -1   -1    0    0    0  501 -0.00000000000E+00  0.00000000000E+00  0.54004639163E+01  0.54004662681E+01  0.50400000000E-02 0.  1.
          1   -1    0    0  501    0  0.00000000000E+00 -0.00000000000E+00 -0.29886655882E+03  0.29886655887E+03  0.50400000000E-02 0. -1.
         23    2    1    2    0    0  0.00000000000E+00  0.00000000000E+00 -0.29346609491E+03  0.30426702514E+03  0.80349696477E+02 0.  0.
    9000005    2    3    3    0    0  0.47031519293E+01 -0.33527027916E+02 -0.22626878313E+03  0.22902302239E+03  0.10382741744E+02 0.  0.
         22    1    3    3    0    0 -0.47031519293E+01  0.33527027916E+02 -0.67197311774E+02  0.75244002741E+02  0.00000000000E+00 0.  1.
         22    1    4    4    0    0  0.47255328754E+01 -0.13392041079E+02 -0.67143955395E+02  0.68629353569E+02  0.00000000000E+00 0. -1.
         22    1    4    4    0    0 -0.22380946094E-01 -0.20134986837E+02 -0.15912482774E+03  0.16039366883E+03  0.00000000000E+00 0. -1.
<mgrwt>
<rscale>  0 0.80349696E+02</rscale>
<asrwt>0</asrwt>
<pdfrwt beam="2">  1        1 0.45979458E-01 0.80349696E+02</pdfrwt>
<pdfrwt beam="1">  1       -1 0.83084102E-03 0.80349696E+02</pdfrwt>
<totfact> 0.17889258E+05</totfact>
</mgrwt>
</event>
<event>
 7    1  0.3565607E-009  0.8959614E+02  0.7818608E-02  0.1303833E+00
         -1   -1    0    0    0  501 -0.00000000000E+00  0.00000000000E+00  0.98061714300E+03  0.98061714302E+03  0.50400000000E-02 0.  1.
          1   -1    0    0  501    0  0.00000000000E+00 -0.00000000000E+00 -0.20465314978E+01  0.20465377038E+01  0.50400000000E-02 0. -1.
         23    2    1    2    0    0  0.35527136788E-14  0.00000000000E+00  0.97857061151E+03  0.98266368072E+03  0.89596136659E+02 0.  0.
    9000005    2    3    3    0    0  0.17176002897E+02  0.20919055196E+02  0.87832774889E+03  0.87883086581E+03  0.12305864186E+02 0.  0.
         22    1    3    3    0    0 -0.17176002897E+02 -0.20919055196E+02  0.10024286262E+03  0.10383281491E+03  0.00000000000E+00 0. -1.
         22    1    4    4    0    0  0.16230888023E+02  0.19221893601E+02  0.63875695601E+03  0.63925219732E+03  0.00000000000E+00 0. -1.
         22    1    4    4    0    0  0.94511487362E+00  0.16971615943E+01  0.23957079287E+03  0.23957866850E+03  0.00000000000E+00 0. -1.
<mgrwt>
<rscale>  0 0.89596137E+02</rscale>
<asrwt>0</asrwt>
<pdfrwt beam="2">  1        1 0.31485149E-03 0.89596137E+02</pdfrwt>
<pdfrwt beam="1">  1       -1 0.15086417E+00 0.89596137E+02</pdfrwt>
<totfact> 0.27489172E+04</totfact>
</mgrwt>
</event>
<event>
 7    1  0.3565607E-009  0.9127918E+02  0.7818608E-02  0.1299783E+00
          1   -1    0    0  501    0  0.00000000000E+00  0.00000000000E+00  0.92615538193E+03  0.92615538195E+03  0.50400000000E-02 0. -1.
         -1   -1    0    0    0  501 -0.00000000000E+00 -0.00000000000E+00 -0.22490497781E+01  0.22490554253E+01  0.50400000000E-02 0.  1.
         23    2    1    2    0    0  0.00000000000E+00  0.00000000000E+00  0.92390633215E+03  0.92840443737E+03  0.91279180191E+02 0.  0.
    9000005    2    3    3    0    0 -0.29626532911E+02 -0.15908351241E+02  0.77270157488E+03  0.77350548414E+03  0.10592595168E+02 0.  0.
         22    1    3    3    0    0  0.29626532911E+02  0.15908351241E+02  0.15120475727E+03  0.15489895323E+03  0.00000000000E+00 0.  1.
         22    1    4    4    0    0 -0.14477749372E+02 -0.13701994988E+02  0.42617124535E+03  0.42663717637E+03  0.00000000000E+00 0. -1.
         22    1    4    4    0    0 -0.15148783539E+02 -0.22063562529E+01  0.34653032953E+03  0.34686830777E+03  0.00000000000E+00 0. -1.
<mgrwt>
<rscale>  0 0.91279180E+02</rscale>
<asrwt>0</asrwt>
<pdfrwt beam="1">  1        1 0.14248525E+00 0.91279180E+02</pdfrwt>
<pdfrwt beam="2">  1       -1 0.34600858E-03 0.91279180E+02</pdfrwt>
<totfact> 0.13803141E+05</totfact>
</mgrwt>
</event>
<event>
 7    1  0.3565607E-009  0.8973354E+02  0.7818608E-02  0.1303498E+00
          1   -1    0    0  501    0  0.00000000000E+00  0.00000000000E+00  0.30395873723E+03  0.30395873727E+03  0.50400000000E-02 0. -1.
         -1   -1    0    0    0  501 -0.00000000000E+00 -0.00000000000E+00 -0.66226976041E+01  0.66226995219E+01  0.50400000000E-02 0.  1.
         23    2    1    2    0    0  0.00000000000E+00  0.00000000000E+00  0.29733603962E+03  0.31058143679E+03  0.89733541223E+02 0.  0.
    9000005    2    3    3    0    0  0.44343511669E+02 -0.24924735241E+01  0.16956067840E+03  0.17530726192E+03  0.30418696292E+01 0.  0.
         22    1    3    3    0    0 -0.44343511669E+02  0.24924735241E+01  0.12777536122E+03  0.13527417487E+03  0.00000000000E+00 0. -1.
         22    1    4    4    0    0  0.28252919021E+02 -0.12148429376E+00  0.10771251845E+03  0.11135631469E+03  0.00000000000E+00 0. -1.
         22    1    4    4    0    0  0.16090592649E+02 -0.23709892303E+01  0.61848159953E+02  0.63950947227E+02  0.00000000000E+00 0. -1.
<mgrwt>
<rscale>  0 0.89733541E+02</rscale>
<asrwt>0</asrwt>
<pdfrwt beam="1">  1        1 0.46762878E-01 0.89733541E+02</pdfrwt>
<pdfrwt beam="2">  1       -1 0.10188768E-02 0.89733541E+02</pdfrwt>
<totfact> 0.13401193E+05</totfact>
</mgrwt>
</event>
<event>
 7    1  0.3565607E-009  0.9156521E+02  0.7818608E-02  0.1299105E+00
          1   -1    0    0  501    0  0.00000000000E+00  0.00000000000E+00  0.28897994278E+02  0.28897994718E+02  0.50400000000E-02 0. -1.
         -1   -1    0    0    0  501 -0.00000000000E+00 -0.00000000000E+00 -0.72532608361E+02  0.72532608536E+02  0.50400000000E-02 0.  1.
         23    2    1    2    0    0 -0.35527136788E-14  0.17763568394E-14 -0.43634614083E+02  0.10143060325E+03  0.91565210262E+02 0.  0.
    9000005    2    3    3    0    0 -0.31394354868E+02  0.12746452784E+02  0.11850654458E+02  0.36417584548E+02  0.61420580484E+01 0.  0.
         22    1    3    3    0    0  0.31394354868E+02 -0.12746452784E+02 -0.55485268541E+02  0.65013018706E+02  0.00000000000E+00 0. -1.
         22    1    4    4    0    0 -0.20735318388E+02  0.11453632485E+02  0.85588608445E+01  0.25187163888E+02  0.00000000000E+00 0.  1.
         22    1    4    4    0    0 -0.10659036481E+02  0.12928202990E+01  0.32917936136E+01  0.11230420661E+02  0.00000000000E+00 0.  1.
<mgrwt>
<rscale>  0 0.91565210E+02</rscale>
<asrwt>0</asrwt>
<pdfrwt beam="1">  1        1 0.44458454E-02 0.91565210E+02</pdfrwt>
<pdfrwt beam="2">  1       -1 0.11158863E-01 0.91565210E+02</pdfrwt>
<totfact> 0.85111181E+04</totfact>
</mgrwt>
</event>
<event>
 7    1  0.3565607E-009  0.9163650E+02  0.7818608E-02  0.1298936E+00
         -1   -1    0    0    0  501 -0.00000000000E+00  0.00000000000E+00  0.13450287784E+02  0.13450288728E+02  0.50400000000E-02 0.  1.
          1   -1    0    0  501    0  0.00000000000E+00 -0.00000000000E+00 -0.15607934933E+03  0.15607934941E+03  0.50400000000E-02 0. -1.
         23    2    1    2    0    0  0.17763568394E-14 -0.71054273576E-14 -0.14262906154E+03  0.16952963814E+03  0.91636504789E+02 0.  0.
    9000005    2    3    3    0    0 -0.84254356185E+01  0.39734198258E+02 -0.39923165458E+02  0.59083743839E+02  0.15723713596E+02 0.  0.
         22    1    3    3    0    0  0.84254356185E+01 -0.39734198258E+02 -0.10270589609E+03  0.11044589430E+03  0.00000000000E+00 0. -1.
         22    1    4    4    0    0  0.33781211645E+01  0.25062205083E+01 -0.61546044659E+01  0.74546629682E+01  0.00000000000E+00 0. -1.
         22    1    4    4    0    0 -0.11803556783E+02  0.37227977749E+02 -0.33768560993E+02  0.51629080871E+02  0.00000000000E+00 0. -1.
<mgrwt>
<rscale>  0 0.91636505E+02</rscale>
<asrwt>0</asrwt>
<pdfrwt beam="2">  1        1 0.24012206E-01 0.91636505E+02</pdfrwt>
<pdfrwt beam="1">  1       -1 0.20692752E-02 0.91636505E+02</pdfrwt>
<totfact> 0.11143567E+05</totfact>
</mgrwt>
</event>
<event>
 7    1  0.3565607E-009  0.8922577E+02  0.7818608E-02  0.1304738E+00
         -1   -1    0    0    0  501 -0.00000000000E+00  0.00000000000E+00  0.10027149092E+02  0.10027150358E+02  0.50400000000E-02 0.  1.
          1   -1    0    0  501    0  0.00000000000E+00 -0.00000000000E+00 -0.19849204385E+03  0.19849204391E+03  0.50400000000E-02 0. -1.
         23    2    1    2    0    0 -0.71054273576E-14 -0.35527136788E-14 -0.18846489476E+03  0.20851919427E+03  0.89225768832E+02 0.  0.
    9000005    2    3    3    0    0  0.38012261219E+02  0.20702266789E+02 -0.11357847637E+03  0.12202357870E+03  0.10778108019E+02 0.  0.
         22    1    3    3    0    0 -0.38012261219E+02 -0.20702266789E+02 -0.74886418391E+02  0.86495615569E+02  0.00000000000E+00 0. -1.
         22    1    4    4    0    0  0.72958671146E+01  0.25069492931E+01 -0.11207738582E+02  0.13606170506E+02  0.00000000000E+00 0. -1.
         22    1    4    4    0    0  0.30716394105E+02  0.18195317496E+02 -0.10237073778E+03  0.10841740820E+03  0.00000000000E+00 0. -1.
<mgrwt>
<rscale>  0 0.89225769E+02</rscale>
<asrwt>0</asrwt>
<pdfrwt beam="2">  1        1 0.30537235E-01 0.89225769E+02</pdfrwt>
<pdfrwt beam="1">  1       -1 0.15426386E-02 0.89225769E+02</pdfrwt>
<totfact> 0.12528170E+05</totfact>
</mgrwt>
</event>
<event>
 7    1  0.3565607E-009  0.8899718E+02  0.7818608E-02  0.1305298E+00
          1   -1    0    0  501    0  0.00000000000E+00  0.00000000000E+00  0.14721071772E+04  0.14721071772E+04  0.50400000000E-02 0. -1.
         -1   -1    0    0    0  501 -0.00000000000E+00 -0.00000000000E+00 -0.13450906244E+01  0.13451000667E+01  0.50400000000E-02 0.  1.
         23    2    1    2    0    0  0.00000000000E+00  0.00000000000E+00  0.14707620866E+04  0.14734522773E+04  0.88997180290E+02 0.  0.
    9000005    2    3    3    0    0  0.14782940856E+02  0.27079438604E+01  0.14279072009E+04  0.14280385180E+04  0.12213368501E+02 0.  0.
         22    1    3    3    0    0 -0.14782940856E+02 -0.27079438604E+01  0.42854885712E+02  0.45413759255E+02  0.00000000000E+00 0.  1.
         22    1    4    4    0    0 -0.78454574811E+00 -0.22535057595E+01  0.34288179054E+03  0.34289009330E+03  0.00000000000E+00 0. -1.
         22    1    4    4    0    0  0.15567486604E+02  0.49614496199E+01  0.10850254103E+04  0.10851484247E+04  0.00000000000E+00 0. -1.
<mgrwt>
<rscale>  0 0.88997180E+02</rscale>
<asrwt>0</asrwt>
<pdfrwt beam="1">  1        1 0.22647858E+00 0.88997180E+02</pdfrwt>
<pdfrwt beam="2">  1       -1 0.20693724E-03 0.88997180E+02</pdfrwt>
<totfact> 0.11960104E+05</totfact>
</mgrwt>
</event>
<event>
 7    1  0.3565607E-009  0.9085788E+02  0.7818608E-02  0.1300787E+00
          1   -1    0    0  501    0  0.00000000000E+00  0.00000000000E+00  0.61599133764E+02  0.61599133970E+02  0.50400000000E-02 0. -1.
         -1   -1    0    0    0  501 -0.00000000000E+00 -0.00000000000E+00 -0.33503532152E+02  0.33503532531E+02  0.50400000000E-02 0.  1.
         23    2    1    2    0    0  0.00000000000E+00  0.71054273576E-14  0.28095601612E+02  0.95102666501E+02  0.90857879932E+02 0.  0.
    9000005    2    3    3    0    0  0.61224044222E+01  0.28689437924E+02 -0.20433527555E+02  0.38396017314E+02  0.14005620763E+02 0.  0.
         22    1    3    3    0    0 -0.61224044222E+01 -0.28689437924E+02  0.48529129166E+02  0.56706649187E+02  0.00000000000E+00 0. -1.
         22    1    4    4    0    0  0.79853269449E+01  0.12324243706E+02 -0.42094169845E+01  0.15276505513E+02  0.00000000000E+00 0.  1.
         22    1    4    4    0    0 -0.18629225228E+01  0.16365194218E+02 -0.16224110570E+02  0.23119511801E+02  0.00000000000E+00 0.  1.
<mgrwt>
<rscale>  0 0.90857880E+02</rscale>
<asrwt>0</asrwt>
<pdfrwt beam="1">  1        1 0.94767898E-02 0.90857880E+02</pdfrwt>
<pdfrwt beam="2">  1       -1 0.51543896E-02 0.90857880E+02</pdfrwt>
<totfact> 0.97699972E+04</totfact>
</mgrwt>
</event>
<event>
 7    1  0.3565607E-009  0.1007079E+03  0.7818608E-02  0.1278814E+00
         -1   -1    0    0    0  501 -0.00000000000E+00  0.00000000000E+00  0.22563009899E+01  0.22563066190E+01  0.50400000000E-02 0.  1.
          1   -1    0    0  501    0  0.00000000000E+00 -0.00000000000E+00 -0.11237489721E+04  0.11237489721E+04  0.50400000000E-02 0. -1.
         23    2    1    2    0    0  0.00000000000E+00  0.35527136788E-14 -0.11214926711E+04  0.11260052787E+04  0.10070787643E+03 0.  0.
    9000005    2    3    3    0    0 -0.33005551204E+02  0.18694636592E+02 -0.92919497155E+03  0.93000206165E+03  0.78538959223E+01 0.  0.
         22    1    3    3    0    0  0.33005551204E+02 -0.18694636592E+02 -0.19229769953E+03  0.19600321705E+03  0.00000000000E+00 0.  1.
         22    1    4    4    0    0 -0.27675767056E+02  0.12149005065E+02 -0.70215474400E+03  0.70280497361E+03  0.00000000000E+00 0.  1.
         22    1    4    4    0    0 -0.53297841476E+01  0.65456315270E+01 -0.22704022755E+03  0.22719708805E+03  0.00000000000E+00 0.  1.
<mgrwt>
<rscale>  0 0.10070788E+03</rscale>
<asrwt>0</asrwt>
<pdfrwt beam="2">  1        1 0.17288401E+00 0.10070788E+03</pdfrwt>
<pdfrwt beam="1">  1       -1 0.34712456E-03 0.10070788E+03</pdfrwt>
<totfact> 0.10054937E+05</totfact>
</mgrwt>
</event>
<event>
 7    1  0.3565607E-009  0.9389218E+02  0.7818608E-02  0.1293691E+00
          1   -1    0    0  501    0  0.00000000000E+00  0.00000000000E+00  0.42010688135E+02  0.42010688437E+02  0.50400000000E-02 0. -1.
         -1   -1    0    0    0  501 -0.00000000000E+00 -0.00000000000E+00 -0.52461296149E+02  0.52461296391E+02  0.50400000000E-02 0.  1.
         23    2    1    2    0    0  0.00000000000E+00  0.00000000000E+00 -0.10450608014E+02  0.94471984828E+02  0.93892175976E+02 0.  0.
    9000005    2    3    3    0    0 -0.10206839472E+02  0.18728007360E+02  0.36837648894E+02  0.42596199793E+02  0.15830442451E+01 0.  0.
         22    1    3    3    0    0  0.10206839472E+02 -0.18728007360E+02 -0.47288256908E+02  0.51875785036E+02  0.00000000000E+00 0.  1.
         22    1    4    4    0    0 -0.75397389589E+01  0.15099293214E+02  0.29513810629E+02  0.33998549042E+02  0.00000000000E+00 0.  1.
         22    1    4    4    0    0 -0.26671005131E+01  0.36287141458E+01  0.73238382652E+01  0.85976507509E+01  0.00000000000E+00 0.  1.
<mgrwt>
<rscale>  0 0.93892176E+02</rscale>
<asrwt>0</asrwt>
<pdfrwt beam="1">  1        1 0.64631829E-02 0.93892176E+02</pdfrwt>
<pdfrwt beam="2">  1       -1 0.80709686E-02 0.93892176E+02</pdfrwt>
<totfact> 0.84067021E+04</totfact>
</mgrwt>
</event>
<event>
 7    1  0.3565607E-009  0.9246308E+02  0.7818608E-02  0.1296994E+00
         -1   -1    0    0    0  501 -0.00000000000E+00  0.00000000000E+00  0.82794629292E+01  0.82794644632E+01  0.50400000000E-02 0.  1.
          1   -1    0    0  501    0  0.00000000000E+00 -0.00000000000E+00 -0.25815144000E+03  0.25815144005E+03  0.50400000000E-02 0. -1.
         23    2    1    2    0    0  0.00000000000E+00  0.00000000000E+00 -0.24987197707E+03  0.26643090451E+03  0.92463084277E+02 0.  0.
    9000005    2    3    3    0    0 -0.21865462201E+02 -0.38454149826E+02 -0.98271823672E+02  0.10850868763E+03  0.12647683037E+02 0.  0.
         22    1    3    3    0    0  0.21865462201E+02  0.38454149826E+02 -0.15160015340E+03  0.15792221689E+03  0.00000000000E+00 0. -1.
         22    1    4    4    0    0 -0.13207216302E+01 -0.13668866166E+02 -0.26474413371E+02  0.29824097157E+02  0.00000000000E+00 0.  1.
         22    1    4    4    0    0 -0.20544740570E+02 -0.24785283660E+02 -0.71797410301E+02  0.78684590468E+02  0.00000000000E+00 0.  1.
<mgrwt>
<rscale>  0 0.92463084E+02</rscale>
<asrwt>0</asrwt>
<pdfrwt beam="2">  1        1 0.39715600E-01 0.92463084E+02</pdfrwt>
<pdfrwt beam="1">  1       -1 0.12737638E-02 0.92463084E+02</pdfrwt>
<totfact> 0.11987035E+05</totfact>
</mgrwt>
</event>
<event>
 7    1  0.3565607E-009  0.9225896E+02  0.7818608E-02  0.1297472E+00
         -1   -1    0    0    0  501 -0.00000000000E+00  0.00000000000E+00  0.21353988930E+02  0.21353989525E+02  0.50400000000E-02 0.  1.
          1   -1    0    0  501    0  0.00000000000E+00 -0.00000000000E+00 -0.99650176605E+02  0.99650176733E+02  0.50400000000E-02 0. -1.
         23    2    1    2    0    0  0.88817841970E-15  0.00000000000E+00 -0.78296187675E+02  0.12100416626E+03  0.92258957544E+02 0.  0.
    9000005    2    3    3    0    0  0.62341610921E+01 -0.89585758027E+01 -0.97309560671E+02  0.99080909254E+02  0.15124653238E+02 0.  0.
         22    1    3    3    0    0 -0.62341610921E+01  0.89585758027E+01  0.19013372996E+02  0.21923257003E+02  0.00000000000E+00 0.  1.
         22    1    4    4    0    0 -0.95923776111E+00 -0.11084511190E+02 -0.55607456419E+02  0.56709573572E+02  0.00000000000E+00 0.  1.
         22    1    4    4    0    0  0.71933988532E+01  0.21259353871E+01 -0.41702104253E+02  0.42371335682E+02  0.00000000000E+00 0.  1.
<mgrwt>
<rscale>  0 0.92258958E+02</rscale>
<asrwt>0</asrwt>
<pdfrwt beam="2">  1        1 0.15330796E-01 0.92258958E+02</pdfrwt>
<pdfrwt beam="1">  1       -1 0.32852292E-02 0.92258958E+02</pdfrwt>
<totfact> 0.10108093E+05</totfact>
</mgrwt>
</event>
<event>
 7    1  0.3565607E-009  0.8432826E+02  0.7818608E-02  0.1317199E+00
          1   -1    0    0  501    0  0.00000000000E+00  0.00000000000E+00  0.39258417664E+02  0.39258417988E+02  0.50400000000E-02 0. -1.
         -1   -1    0    0    0  501 -0.00000000000E+00 -0.00000000000E+00 -0.45284903430E+02  0.45284903711E+02  0.50400000000E-02 0.  1.
         23    2    1    2    0    0  0.00000000000E+00  0.00000000000E+00 -0.60264857660E+01  0.84543321699E+02  0.84328255722E+02 0.  0.
    9000005    2    3    3    0    0 -0.12704610377E+02 -0.11289142173E+02 -0.40571442035E+02  0.46043894957E+02  0.13606854825E+02 0.  0.
         22    1    3    3    0    0  0.12704610377E+02  0.11289142173E+02  0.34544956268E+02  0.38499426742E+02  0.00000000000E+00 0. -1.
         22    1    4    4    0    0  0.25622538461E+01  0.10538521637E+00 -0.32340133935E+01  0.41273591369E+01  0.00000000000E+00 0.  1.
         22    1    4    4    0    0 -0.15266864223E+02 -0.11394527389E+02 -0.37337428641E+02  0.41916535820E+02  0.00000000000E+00 0.  1.
<mgrwt>
<rscale>  0 0.84328256E+02</rscale>
<asrwt>0</asrwt>
<pdfrwt beam="1">  1        1 0.60397566E-02 0.84328256E+02</pdfrwt>
<pdfrwt beam="2">  1       -1 0.69669083E-02 0.84328256E+02</pdfrwt>
<totfact> 0.11255646E+05</totfact>
</mgrwt>
</event>
<event>
 7    1  0.3565607E-009  0.9367682E+02  0.7818608E-02  0.1294184E+00
         -1   -1    0    0    0  501 -0.00000000000E+00  0.00000000000E+00  0.57061751015E+01  0.57061773273E+01  0.50400000000E-02 0.  1.
          1   -1    0    0  501    0  0.00000000000E+00 -0.00000000000E+00 -0.38446704135E+03  0.38446704138E+03  0.50400000000E-02 0. -1.
         23    2    1    2    0    0  0.00000000000E+00  0.00000000000E+00 -0.37876086624E+03  0.39017321871E+03  0.93676821025E+02 0.  0.
    9000005    2    3    3    0    0 -0.31523078662E+01 -0.27620957112E+02 -0.34573772248E+03  0.34700630614E+03  0.10293174279E+02 0.  0.
         22    1    3    3    0    0  0.31523078662E+01  0.27620957112E+02 -0.33023143765E+02  0.43166912569E+02  0.00000000000E+00 0.  1.
         22    1    4    4    0    0 -0.30398255481E+01 -0.24836498661E+02 -0.25474273800E+03  0.25596865974E+03  0.00000000000E+00 0. -1.
         22    1    4    4    0    0 -0.11248231810E+00 -0.27844584506E+01 -0.90994984475E+02  0.91037646393E+02  0.00000000000E+00 0. -1.
<mgrwt>
<rscale>  0 0.93676821E+02</rscale>
<asrwt>0</asrwt>
<pdfrwt beam="2">  1        1 0.59148755E-01 0.93676821E+02</pdfrwt>
<pdfrwt beam="1">  1       -1 0.87787357E-03 0.93676821E+02</pdfrwt>
<totfact> 0.12469672E+05</totfact>
</mgrwt>
</event>
<event>
 7    1  0.3565607E-009  0.8575725E+02  0.7818608E-02  0.1313464E+00
          1   -1    0    0  501    0  0.00000000000E+00  0.00000000000E+00  0.79300121185E+02  0.79300121345E+02  0.50400000000E-02 0. -1.
         -1   -1    0    0    0  501 -0.00000000000E+00 -0.00000000000E+00 -0.23185038277E+02  0.23185038825E+02  0.50400000000E-02 0.  1.
         23    2    1    2    0    0  0.00000000000E+00  0.00000000000E+00  0.56115082907E+02  0.10248516017E+03  0.85757247655E+02 0.  0.
    9000005    2    3    3    0    0  0.14085624505E+02 -0.39496183210E+02  0.35448068623E+02  0.55736055523E+02  0.95702147479E+01 0.  0.
         22    1    3    3    0    0 -0.14085624505E+02  0.39496183210E+02  0.20667014284E+02  0.46749104647E+02  0.00000000000E+00 0.  1.
         22    1    4    4    0    0  0.63114835143E+01 -0.15429880434E+02  0.82644503800E+01  0.18606912007E+02  0.00000000000E+00 0. -1.
         22    1    4    4    0    0  0.77741409905E+01 -0.24066302776E+02  0.27183618243E+02  0.37129143516E+02  0.00000000000E+00 0. -1.
<mgrwt>
<rscale>  0 0.85757248E+02</rscale>
<asrwt>0</asrwt>
<pdfrwt beam="1">  1        1 0.12200019E-01 0.85757248E+02</pdfrwt>
<pdfrwt beam="2">  1       -1 0.35669291E-02 0.85757248E+02</pdfrwt>
<totfact> 0.11893922E+05</totfact>
</mgrwt>
</event>
<event>
 7    1  0.3565607E-009  0.8971166E+02  0.7818608E-02  0.1303551E+00
          1   -1    0    0  501    0  0.00000000000E+00  0.00000000000E+00  0.18440326542E+03  0.18440326548E+03  0.50400000000E-02 0.  1.
         -1   -1    0    0    0  501 -0.00000000000E+00 -0.00000000000E+00 -0.10911116392E+02  0.10911117556E+02  0.50400000000E-02 0. -1.
         23    2    1    2    0    0  0.00000000000E+00 -0.35527136788E-14  0.17349214902E+03  0.19531438304E+03  0.89711662839E+02 0.  0.
    9000005    2    3    3    0    0 -0.17793207056E+02 -0.25559460421E+02  0.19328546843E+02  0.38036601800E+02  0.10163961783E+02 0.  0.
         22    1    3    3    0    0  0.17793207056E+02  0.25559460421E+02  0.15416360218E+03  0.15727778124E+03  0.00000000000E+00 0.  1.
         22    1    4    4    0    0 -0.17274094197E+02 -0.17457042027E+02  0.15662357441E+02  0.29128200893E+02  0.00000000000E+00 0.  1.
         22    1    4    4    0    0 -0.51911285863E+00 -0.81024183940E+01  0.36661894014E+01  0.89084009069E+01  0.00000000000E+00 0.  1.
<mgrwt>
<rscale>  0 0.89711663E+02</rscale>
<asrwt>0</asrwt>
<pdfrwt beam="1">  1        1 0.28369732E-01 0.89711663E+02</pdfrwt>
<pdfrwt beam="2">  1       -1 0.16786335E-02 0.89711663E+02</pdfrwt>
<totfact> 0.12174053E+05</totfact>
</mgrwt>
</event>
<event>
 7    1  0.3565607E-009  0.9181646E+02  0.7818608E-02  0.1298512E+00
         -1   -1    0    0    0  501 -0.00000000000E+00  0.00000000000E+00  0.55024509818E+01  0.55024532900E+01  0.50400000000E-02 0.  1.
          1   -1    0    0  501    0  0.00000000000E+00 -0.00000000000E+00 -0.38302300247E+03  0.38302300250E+03  0.50400000000E-02 0. -1.
         23    2    1    2    0    0 -0.22204460493E-15 -0.17763568394E-14 -0.37752055149E+03  0.38852545579E+03  0.91816463684E+02 0.  0.
    9000005    2    3    3    0    0 -0.14687239851E+01  0.12730458458E+02 -0.37525567148E+03  0.37551194727E+03  0.53086569598E+01 0.  0.
         22    1    3    3    0    0  0.14687239851E+01 -0.12730458458E+02 -0.22648800059E+01  0.13013508525E+02  0.00000000000E+00 0.  1.
         22    1    4    4    0    0 -0.30942468869E+01  0.10621472254E+02 -0.32162950721E+03  0.32181971653E+03  0.00000000000E+00 0.  1.
         22    1    4    4    0    0  0.16255229018E+01  0.21089862037E+01 -0.53626164270E+02  0.53692230740E+02  0.00000000000E+00 0.  1.
<mgrwt>
<rscale>  0 0.91816464E+02</rscale>
<asrwt>0</asrwt>
<pdfrwt beam="2">  1        1 0.58926595E-01 0.91816464E+02</pdfrwt>
<pdfrwt beam="1">  1       -1 0.84653140E-03 0.91816464E+02</pdfrwt>
<totfact> 0.13145263E+05</totfact>
</mgrwt>
</event>
<event>
 7    1  0.3565607E-009  0.9729958E+02  0.7818608E-02  0.1286079E+00
          1   -1    0    0  501    0  0.00000000000E+00  0.00000000000E+00  0.86330201121E+01  0.86330215833E+01  0.50400000000E-02 0. -1.
         -1   -1    0    0    0  501 -0.00000000000E+00 -0.00000000000E+00 -0.27415686002E+03  0.27415686007E+03  0.50400000000E-02 0.  1.
         23    2    1    2    0    0 -0.71054273576E-14  0.00000000000E+00 -0.26552383991E+03  0.28278988165E+03  0.97299576587E+02 0.  0.
    9000005    2    3    3    0    0 -0.46583692625E+02  0.97388848988E+01 -0.15085320868E+03  0.15863578400E+03  0.11988957329E+02 0.  0.
         22    1    3    3    0    0  0.46583692625E+02 -0.97388848988E+01 -0.11467063123E+03  0.12415409765E+03  0.00000000000E+00 0. -1.
         22    1    4    4    0    0 -0.20078673928E+01  0.33205610183E+01 -0.88790670415E+01  0.96899684453E+01  0.00000000000E+00 0.  1.
         22    1    4    4    0    0 -0.44575825232E+02  0.64183238805E+01 -0.14197414164E+03  0.14894581555E+03  0.00000000000E+00 0.  1.
<mgrwt>
<rscale>  0 0.97299577E+02</rscale>
<asrwt>0</asrwt>
<pdfrwt beam="1">  1        1 0.13281573E-02 0.97299577E+02</pdfrwt>
<pdfrwt beam="2">  1       -1 0.42177972E-01 0.97299577E+02</pdfrwt>
<totfact> 0.52876557E+04</totfact>
</mgrwt>
</event>
<event>
 7    1  0.3565607E-009  0.9018102E+02  0.7818608E-02  0.1302414E+00
          1   -1    0    0  501    0  0.00000000000E+00  0.00000000000E+00  0.24603890945E+03  0.24603890950E+03  0.50400000000E-02 0. -1.
         -1   -1    0    0    0  501 -0.00000000000E+00 -0.00000000000E+00 -0.82635458396E+01  0.82635473765E+01  0.50400000000E-02 0.  1.
         23    2    1    2    0    0 -0.35527136788E-14  0.00000000000E+00  0.23777536361E+03  0.25430245688E+03  0.90181018148E+02 0.  0.
    9000005    2    3    3    0    0  0.30551331266E+02 -0.25964889729E+02  0.17686607579E+03  0.18138126185E+03  0.31613361535E+01 0.  0.
         22    1    3    3    0    0 -0.30551331266E+02  0.25964889729E+02  0.60909287824E+02  0.72921195025E+02  0.00000000000E+00 0.  1.
         22    1    4    4    0    0  0.99386448970E+01 -0.95753737297E+01  0.55379575212E+02  0.57073301947E+02  0.00000000000E+00 0. -1.
         22    1    4    4    0    0  0.20612686369E+02 -0.16389515999E+02  0.12148650057E+03  0.12430795991E+03  0.00000000000E+00 0. -1.
<mgrwt>
<rscale>  0 0.90181018E+02</rscale>
<asrwt>0</asrwt>
<pdfrwt beam="1">  1        1 0.37852140E-01 0.90181018E+02</pdfrwt>
<pdfrwt beam="2">  1       -1 0.12713149E-02 0.90181018E+02</pdfrwt>
<totfact> 0.12695322E+05</totfact>
</mgrwt>
</event>
<event>
 7    1  0.3565607E-009  0.9146086E+02  0.7818608E-02  0.1299352E+00
         -1   -1    0    0    0  501 -0.00000000000E+00  0.00000000000E+00  0.56114242324E+01  0.56114264958E+01  0.50400000000E-02 0.  1.
          1   -1    0    0  501    0  0.00000000000E+00 -0.00000000000E+00 -0.37268109656E+03  0.37268109659E+03  0.50400000000E-02 0. -1.
         23    2    1    2    0    0  0.00000000000E+00  0.00000000000E+00 -0.36706967233E+03  0.37829252309E+03  0.91460858748E+02 0.  0.
    9000005    2    3    3    0    0 -0.35787061062E+02  0.16180487770E+01 -0.29802672475E+03  0.30050910306E+03  0.14228862757E+02 0.  0.
         22    1    3    3    0    0  0.35787061062E+02 -0.16180487770E+01 -0.69042947575E+02  0.77783420028E+02  0.00000000000E+00 0.  1.
         22    1    4    4    0    0 -0.27861772907E+02  0.67609717518E+01 -0.20314889311E+03  0.20516203816E+03  0.00000000000E+00 0. -1.
         22    1    4    4    0    0 -0.79252881554E+01 -0.51429229748E+01 -0.94877831643E+02  0.95347064906E+02  0.00000000000E+00 0. -1.
<mgrwt>
<rscale>  0 0.91460859E+02</rscale>
<asrwt>0</asrwt>
<pdfrwt beam="2">  1        1 0.57335534E-01 0.91460859E+02</pdfrwt>
<pdfrwt beam="1">  1       -1 0.86329650E-03 0.91460859E+02</pdfrwt>
<totfact> 0.13219331E+05</totfact>
</mgrwt>
</event>
<event>
 6    1  0.3565607E-009  0.1738971E+03  0.7818608E-02  0.1173844E+00
          1   -1    0    0  501    0  0.00000000000E+00  0.00000000000E+00  0.20153766777E+02  0.20153767407E+02  0.50400000000E-02 0. -1.
         -1   -1    0    0    0  501 -0.00000000000E+00 -0.00000000000E+00 -0.37511848270E+03  0.37511848273E+03  0.50400000000E-02 0.  1.
    9000005    2    1    2    0    0  0.82135681604E+02 -0.14221920083E+02 -0.12143092390E+03  0.14730740340E+03  0.23385065926E+01 0.  0.
         22    1    1    2    0    0 -0.82135681604E+02  0.14221920083E+02 -0.23353379202E+03  0.24796484674E+03  0.00000000000E+00 0.  1.
         22    1    3    3    0    0  0.57940196556E+02 -0.10916030598E+02 -0.84778698658E+02  0.10326496912E+03  0.00000000000E+00 0. -1.
         22    1    3    3    0    0  0.24195485048E+02 -0.33058894845E+01 -0.36652225242E+02  0.44042434279E+02  0.00000000000E+00 0. -1.
<mgrwt>
<rscale>  0 0.17389710E+03</rscale>
<asrwt>0</asrwt>
<pdfrwt beam="1">  1        1 0.31005798E-02 0.17389710E+03</pdfrwt>
<pdfrwt beam="2">  1       -1 0.57710531E-01 0.17389710E+03</pdfrwt>
<totfact> 0.98084820E+03</totfact>
</mgrwt>
</event>
<event>
 7    1  0.3565607E-009  0.9010095E+02  0.7818608E-02  0.1302607E+00
          1   -1    0    0  501    0  0.00000000000E+00  0.00000000000E+00  0.28426807426E+03  0.28426807430E+03  0.50400000000E-02 0. -1.
         -1   -1    0    0    0  501 -0.00000000000E+00 -0.00000000000E+00 -0.71395456694E+01  0.71395474483E+01  0.50400000000E-02 0.  1.
         23    2    1    2    0    0  0.00000000000E+00  0.00000000000E+00  0.27712852859E+03  0.29140762175E+03  0.90100947037E+02 0.  0.
    9000005    2    3    3    0    0 -0.27110629338E+02  0.19476320351E+02  0.23570318348E+03  0.23820637651E+03  0.84837392324E+01 0.  0.
         22    1    3    3    0    0  0.27110629338E+02 -0.19476320351E+02  0.41425345110E+02  0.53201245239E+02  0.00000000000E+00 0.  1.
         22    1    4    4    0    0 -0.39780824279E+01  0.12238384130E+01  0.15851133001E+02  0.16388451351E+02  0.00000000000E+00 0.  1.
         22    1    4    4    0    0 -0.23132546910E+02  0.18252481938E+02  0.21985205048E+03  0.22181792516E+03  0.00000000000E+00 0.  1.
<mgrwt>
<rscale>  0 0.90100947E+02</rscale>
<asrwt>0</asrwt>
<pdfrwt beam="1">  1        1 0.43733543E-01 0.90100947E+02</pdfrwt>
<pdfrwt beam="2">  1       -1 0.10983919E-02 0.90100947E+02</pdfrwt>
<totfact> 0.13087697E+05</totfact>
</mgrwt>
</event>
<event>
 7    1  0.3565607E-009  0.9076292E+02  0.7818608E-02  0.1301015E+00
         -1   -1    0    0    0  501 -0.00000000000E+00  0.00000000000E+00  0.14941640206E+03  0.14941640214E+03  0.50400000000E-02 0.  1.
          1   -1    0    0  501    0  0.00000000000E+00 -0.00000000000E+00 -0.13783470880E+02  0.13783471802E+02  0.50400000000E-02 0. -1.
         23    2    1    2    0    0  0.00000000000E+00  0.00000000000E+00  0.13563293118E+03  0.16319987394E+03  0.90762915531E+02 0.  0.
    9000005    2    3    3    0    0 -0.43956718304E+02  0.36146090859E+01  0.83690514228E+02  0.95058306884E+02  0.93124139193E+01 0.  0.
         22    1    3    3    0    0  0.43956718304E+02 -0.36146090859E+01  0.51942416947E+02  0.68141567059E+02  0.00000000000E+00 0. -1.
         22    1    4    4    0    0 -0.33890883679E+02  0.55794497366E+01  0.58159706046E+02  0.67544604990E+02  0.00000000000E+00 0.  1.
         22    1    4    4    0    0 -0.10065834625E+02 -0.19648406507E+01  0.25530808183E+02  0.27513701894E+02  0.00000000000E+00 0.  1.
<mgrwt>
<rscale>  0 0.90762916E+02</rscale>
<asrwt>0</asrwt>
<pdfrwt beam="2">  1        1 0.21205341E-02 0.90762916E+02</pdfrwt>
<pdfrwt beam="1">  1       -1 0.22987139E-01 0.90762916E+02</pdfrwt>
<totfact> 0.75745588E+04</totfact>
</mgrwt>
</event>
